# vtk DataFile Version 2.0
Unstructured Grid Ptrack_cells
ASCII

DATASET UNSTRUCTURED_GRID
POINTS 80 float
0 99.9942 0.0
0 99.8938 0.0
0 99.7935 0.0
0 99.6932 0.0
0 99.5928 0.0
0 99.4925 0.0
0 99.3427 0.0
0 99.1928 0.0
0 99.043 0.0
0 98.8932 0.0
0 98.7433 0.0
0 98.5935 0.0
0 98.4437 0.0
0 98.2938 0.0
0 98.144 0.0
0 97.9942 0.0
0.1 99.9942 0.0
0.1 99.8938 0.0
0.1 99.7935 0.0
0.1 99.6932 0.0
0.1 99.5928 0.0
0.1 99.4925 0.0
0.1 99.3427 0.0
0.1 99.1928 0.0
0.1 99.043 0.0
0.1 98.8932 0.0
0.1 98.7433 0.0
0.1 98.5935 0.0
0.1 98.4437 0.0
0.1 98.2938 0.0
0.1 98.144 0.0
0.1 97.9942 0.0
0.2 99.9942 0.0
0.2 99.8938 0.0
0.2 99.7935 0.0
0.2 99.6932 0.0
0.2 99.5928 0.0
0.2 99.4925 0.0
0.2 99.3427 0.0
0.2 99.1928 0.0
0.2 99.043 0.0
0.2 98.8932 0.0
0.2 98.7433 0.0
0.2 98.5935 0.0
0.2 98.4437 0.0
0.2 98.2938 0.0
0.2 98.144 0.0
0.2 97.9942 0.0
0.3 99.9942 0.0
0.3 99.8938 0.0
0.3 99.7935 0.0
0.3 99.6932 0.0
0.3 99.5928 0.0
0.3 99.4925 0.0
0.3 99.3427 0.0
0.3 99.1928 0.0
0.3 99.043 0.0
0.3 98.8932 0.0
0.3 98.7433 0.0
0.3 98.5935 0.0
0.3 98.4437 0.0
0.3 98.2938 0.0
0.3 98.144 0.0
0.3 97.9942 0.0
0.4 99.9942 0.0
0.4 99.8938 0.0
0.4 99.7935 0.0
0.4 99.6932 0.0
0.4 99.5928 0.0
0.4 99.4925 0.0
0.4 99.3427 0.0
0.4 99.1928 0.0
0.4 99.043 0.0
0.4 98.8932 0.0
0.4 98.7433 0.0
0.4 98.5935 0.0
0.4 98.4437 0.0
0.4 98.2938 0.0
0.4 98.144 0.0
0.4 97.9942 0.0

CELLS 60 300
4 0 16 17 1
4 1 17 18 2
4 2 18 19 3
4 3 19 20 4
4 4 20 21 5
4 5 21 22 6
4 6 22 23 7
4 7 23 24 8
4 8 24 25 9
4 9 25 26 10
4 10 26 27 11
4 11 27 28 12
4 12 28 29 13
4 13 29 30 14
4 14 30 31 15
4 16 32 33 17
4 17 33 34 18
4 18 34 35 19
4 19 35 36 20
4 20 36 37 21
4 21 37 38 22
4 22 38 39 23
4 23 39 40 24
4 24 40 41 25
4 25 41 42 26
4 26 42 43 27
4 27 43 44 28
4 28 44 45 29
4 29 45 46 30
4 30 46 47 31
4 32 48 49 33
4 33 49 50 34
4 34 50 51 35
4 35 51 52 36
4 36 52 53 37
4 37 53 54 38
4 38 54 55 39
4 39 55 56 40
4 40 56 57 41
4 41 57 58 42
4 42 58 59 43
4 43 59 60 44
4 44 60 61 45
4 45 61 62 46
4 46 62 63 47
4 48 64 65 49
4 49 65 66 50
4 50 66 67 51
4 51 67 68 52
4 52 68 69 53
4 53 69 70 54
4 54 70 71 55
4 55 71 72 56
4 56 72 73 57
4 57 73 74 58
4 58 74 75 59
4 59 75 76 60
4 60 76 77 61
4 61 77 78 62
4 62 78 79 63

CELL_TYPES 60
9
9
9
9
9
9
9
9
9
9
9
9
9
9
9
9
9
9
9
9
9
9
9
9
9
9
9
9
9
9
9
9
9
9
9
9
9
9
9
9
9
9
9
9
9
9
9
9
9
9
9
9
9
9
9
9
9
9
9
9

CELL_DATA 60
SCALARS SOIL_OR_PARENT int 1
LOOKUP_TABLE default
1
1
1
1
1
0
0
0
0
0
0
0
0
0
0
1
1
1
1
1
0
0
0
0
0
0
0
0
0
0
1
1
1
1
1
0
0
0
0
0
0
0
0
0
0
1
1
1
1
1
0
0
0
0
0
0
0
0
0
0
SCALARS CELL_NUM int 1
LOOKUP_TABLE default
0
1
2
3
4
5
6
7
8
9
10
11
12
13
14
15
16
17
18
19
20
21
22
23
24
25
26
27
28
29
30
31
32
33
34
35
36
37
38
39
40
41
42
43
44
45
46
47
48
49
50
51
52
53
54
55
56
57
58
59
SCALARS Mineral_volume_percents_Albite float 1
LOOKUP_TABLE default
254158
260980
268629
255580
261252
260583
259648
261491
258069
260533
262873
258371
261533
259974
254112
261447
230800
287520
265151
261930
261010
260766
258042
261099
259256
259542
261770
262176
258504
255188
238834
271285
260232
288022
267061
262711
258197
260141
260769
259308
260164
259004
263066
259238
255593
239350
266217
276906
253546
265282
259868
258383
262261
259474
262458
257601
262240
257133
259094
257783
SCALARS Mineral_volume_percents_Quartz float 1
LOOKUP_TABLE default
258632
258058
267659
255176
257483
260105
259692
262168
259252
261469
257069
261247
259842
259646
254765
226324
296495
292150
253387
248962
256507
259162
263802
259232
258034
261023
259512
257937
263479
253298
294723
252508
239033
268188
278201
258690
260282
257333
263733
257455
261455
258638
259539
259887
256060
244240
243319
270124
258027
285574
257150
260522
259195
261489
258382
259226
261149
260814
258843
256466
SCALARS Mineral_specific_surface_area_m2perg_Albite float 1
LOOKUP_TABLE default
0.090566
0.090566
0.090566
0.090566
0.090566
0.090566
0.090566
0.090566
0.090566
0.090566
0.090566
0.090566
0.090566
0.090566
0.090566
0.090566
0.090566
0.090566
0.090566
0.090566
0.090566
0.090566
0.090566
0.090566
0.090566
0.090566
0.090566
0.090566
0.090566
0.090566
0.090566
0.090566
0.090566
0.090566
0.090566
0.090566
0.090566
0.090566
0.090566
0.090566
0.090566
0.090566
0.090566
0.090566
0.090566
0.090566
0.090566
0.090566
0.090566
0.090566
0.090566
0.090566
0.090566
0.090566
0.090566
0.090566
0.090566
0.090566
0.090566
0.090566
SCALARS Mineral_specific_surface_area_m2perg_Quartz float 1
LOOKUP_TABLE default
0.090566
0.090566
0.090566
0.090566
0.090566
0.090566
0.090566
0.090566
0.090566
0.090566
0.090566
0.090566
0.090566
0.090566
0.090566
0.090566
0.090566
0.090566
0.090566
0.090566
0.090566
0.090566
0.090566
0.090566
0.090566
0.090566
0.090566
0.090566
0.090566
0.090566
0.090566
0.090566
0.090566
0.090566
0.090566
0.090566
0.090566
0.090566
0.090566
0.090566
0.090566
0.090566
0.090566
0.090566
0.090566
0.090566
0.090566
0.090566
0.090566
0.090566
0.090566
0.090566
0.090566
0.090566
0.090566
0.090566
0.090566
0.090566
0.090566
0.090566
SCALARS Mineral_mass_kg_Albite float 1
LOOKUP_TABLE default
67576.4
69390.2
71424.1
67954.6
69462.6
103467
103095
103827
102468
103447
104376
102588
103844
103225
100897
69514.4
61365.9
76446.7
70499.3
69642.9
103636
103539
102458
103672
102940
103053
103938
104099
102641
101325
63502.1
72130.1
69191.3
76580.4
71007
104311
102519
103291
103540
102961
103300
102840
104453
102933
101485
63639.1
70782.7
73624.8
67413.8
70534.2
103183
102593
104133
103026
104211
102283
104125
102097
102876
102355
SCALARS Mineral_mass_kg_Quartz float 1
LOOKUP_TABLE default
68766
68613.3
71166.1
67847
68460.4
103277
103113
104096
102938
103819
102071
103730
103172
103095
101157
60175.8
78833.1
77677.9
67371.5
66194.9
101848
102902
104745
102930
102455
103641
103041
102416
104616
100574
78361.9
67137.6
63554.9
71306.7
73969
102715
103347
102176
104717
102225
103813
102695
103052
103190
101671
64939.5
64694.4
71821.5
68605.2
75929.4
102104
103442
102915
103826
102593
102928
103691
103558
102776
101832
SCALARS Mineral_surface_area_m2_Albite float 1
LOOKUP_TABLE default
6.12013e+06
6.28439e+06
6.4686e+06
6.15438e+06
6.29095e+06
9.37055e+06
9.33695e+06
9.40321e+06
9.28016e+06
9.36878e+06
9.45291e+06
9.29103e+06
9.40473e+06
9.34866e+06
9.13788e+06
6.29564e+06
5.55766e+06
6.92348e+06
6.38484e+06
6.30728e+06
9.38591e+06
9.37714e+06
9.27921e+06
9.38914e+06
9.32284e+06
9.33312e+06
9.41326e+06
9.42784e+06
9.2958e+06
9.17656e+06
5.75113e+06
6.53254e+06
6.26638e+06
6.93558e+06
6.43082e+06
9.44708e+06
9.28475e+06
9.35467e+06
9.37724e+06
9.32473e+06
9.35549e+06
9.31378e+06
9.45986e+06
9.32221e+06
9.19114e+06
5.76354e+06
6.41051e+06
6.66791e+06
6.1054e+06
6.388e+06
9.34484e+06
9.29146e+06
9.4309e+06
9.3307e+06
9.43797e+06
9.26332e+06
9.43014e+06
9.24651e+06
9.31703e+06
9.26989e+06
SCALARS Mineral_surface_area_m2_Quartz float 1
LOOKUP_TABLE default
6.22786e+06
6.21404e+06
6.44523e+06
6.14463e+06
6.20019e+06
9.35338e+06
9.33853e+06
9.42756e+06
9.32269e+06
9.40244e+06
9.2442e+06
9.39442e+06
9.34391e+06
9.33689e+06
9.16136e+06
5.44988e+06
7.1396e+06
7.03498e+06
6.10157e+06
5.99501e+06
9.22399e+06
9.31945e+06
9.48633e+06
9.32199e+06
9.2789e+06
9.38637e+06
9.33204e+06
9.27543e+06
9.4747e+06
9.10859e+06
7.09693e+06
6.08039e+06
5.75592e+06
6.45797e+06
6.69908e+06
9.30248e+06
9.35973e+06
9.25369e+06
9.48383e+06
9.25809e+06
9.40192e+06
9.30063e+06
9.33304e+06
9.34555e+06
9.20791e+06
5.88131e+06
5.85911e+06
6.50459e+06
6.2133e+06
6.87662e+06
9.24713e+06
9.36835e+06
9.32064e+06
9.40314e+06
9.29141e+06
9.32175e+06
9.39091e+06
9.37886e+06
9.308e+06
9.22253e+06
SCALARS Solute_Concentration_Al+++ float 1
LOOKUP_TABLE default
6.13522e-06
8.5158e-06
1.03771e-05
1.14705e-05
1.16207e-05
1.10378e-05
9.28239e-06
7.55658e-06
6.36187e-06
4.69461e-06
3.68021e-06
3.22612e-06
2.59559e-06
2.25382e-06
1.72905e-06
6.13522e-06
8.5158e-06
1.03771e-05
1.14705e-05
1.16207e-05
1.10378e-05
9.28239e-06
7.55658e-06
6.36187e-06
4.69461e-06
3.68021e-06
3.22612e-06
2.59559e-06
2.25382e-06
1.72905e-06
6.13522e-06
8.5158e-06
1.03771e-05
1.14705e-05
1.16207e-05
1.10378e-05
9.28239e-06
7.55658e-06
6.36187e-06
4.69461e-06
3.68021e-06
3.22612e-06
2.59559e-06
2.25382e-06
1.72905e-06
6.13522e-06
8.5158e-06
1.03771e-05
1.14705e-05
1.16207e-05
1.10378e-05
9.28239e-06
7.55658e-06
6.36187e-06
4.69461e-06
3.68021e-06
3.22612e-06
2.59559e-06
2.25382e-06
1.72905e-06
SCALARS Solute_Concentration_CO2(aq) float 1
LOOKUP_TABLE default
0.00964234
0.0094933
0.00936644
0.00927138
0.00921234
0.00914699
0.00910561
0.00905555
0.0089879
0.00894332
0.00886696
0.00877443
0.00868895
0.00859295
0.00851923
0.00964234
0.0094933
0.00936644
0.00927138
0.00921234
0.00914699
0.00910561
0.00905555
0.0089879
0.00894332
0.00886696
0.00877443
0.00868895
0.00859295
0.00851923
0.00964234
0.0094933
0.00936644
0.00927138
0.00921234
0.00914699
0.00910561
0.00905555
0.0089879
0.00894332
0.00886696
0.00877443
0.00868895
0.00859295
0.00851923
0.00964234
0.0094933
0.00936644
0.00927138
0.00921234
0.00914699
0.00910561
0.00905555
0.0089879
0.00894332
0.00886696
0.00877443
0.00868895
0.00859295
0.00851923
SCALARS Solute_Concentration_Ca++ float 1
LOOKUP_TABLE default
9.0701e-05
9.07016e-05
9.07021e-05
9.07027e-05
9.07031e-05
9.07039e-05
9.07048e-05
9.07057e-05
9.07067e-05
9.07077e-05
9.07086e-05
9.07095e-05
9.07104e-05
9.07113e-05
9.07122e-05
9.0701e-05
9.07016e-05
9.07021e-05
9.07027e-05
9.07031e-05
9.07039e-05
9.07048e-05
9.07057e-05
9.07067e-05
9.07077e-05
9.07086e-05
9.07095e-05
9.07104e-05
9.07113e-05
9.07122e-05
9.0701e-05
9.07016e-05
9.07021e-05
9.07027e-05
9.07031e-05
9.07039e-05
9.07048e-05
9.07057e-05
9.07067e-05
9.07077e-05
9.07086e-05
9.07095e-05
9.07104e-05
9.07113e-05
9.07122e-05
9.0701e-05
9.07016e-05
9.07021e-05
9.07027e-05
9.07031e-05
9.07039e-05
9.07048e-05
9.07057e-05
9.07067e-05
9.07077e-05
9.07086e-05
9.07095e-05
9.07104e-05
9.07113e-05
9.07122e-05
SCALARS Solute_Concentration_Cl- float 1
LOOKUP_TABLE default
0.000465
0.000465
0.000465
0.000465
0.000465
0.000465
0.000465
0.000465
0.000465
0.000465
0.000465
0.000465
0.000465
0.000465
0.000465
0.000465
0.000465
0.000465
0.000465
0.000465
0.000465
0.000465
0.000465
0.000465
0.000465
0.000465
0.000465
0.000465
0.000465
0.000465
0.000465
0.000465
0.000465
0.000465
0.000465
0.000465
0.000465
0.000465
0.000465
0.000465
0.000465
0.000465
0.000465
0.000465
0.000465
0.000465
0.000465
0.000465
0.000465
0.000465
0.000465
0.000465
0.000465
0.000465
0.000465
0.000465
0.000465
0.000465
0.000465
0.000465
SCALARS Solute_Concentration_Fe++ float 1
LOOKUP_TABLE default
2.0998e-08
3.17274e-08
4.30936e-08
5.31417e-08
6.28811e-08
7.76673e-08
9.6105e-08
1.13267e-07
1.34249e-07
1.53977e-07
1.72772e-07
1.90613e-07
2.0914e-07
2.26572e-07
2.43091e-07
2.0998e-08
3.17274e-08
4.30936e-08
5.31417e-08
6.28811e-08
7.76673e-08
9.6105e-08
1.13267e-07
1.34249e-07
1.53977e-07
1.72772e-07
1.90613e-07
2.0914e-07
2.26572e-07
2.43091e-07
2.0998e-08
3.17274e-08
4.30936e-08
5.31417e-08
6.28811e-08
7.76673e-08
9.6105e-08
1.13267e-07
1.34249e-07
1.53977e-07
1.72772e-07
1.90613e-07
2.0914e-07
2.26572e-07
2.43091e-07
2.0998e-08
3.17274e-08
4.30936e-08
5.31417e-08
6.28811e-08
7.76673e-08
9.6105e-08
1.13267e-07
1.34249e-07
1.53977e-07
1.72772e-07
1.90613e-07
2.0914e-07
2.26572e-07
2.43091e-07
SCALARS Solute_Concentration_Fe+++ float 1
LOOKUP_TABLE default
8.35922e-09
1.2651e-08
1.71974e-08
2.12167e-08
2.51124e-08
3.10269e-08
3.8402e-08
4.52668e-08
5.36594e-08
6.15509e-08
6.90689e-08
7.62052e-08
8.36161e-08
9.05887e-08
9.71965e-08
8.35922e-09
1.2651e-08
1.71974e-08
2.12167e-08
2.51124e-08
3.10269e-08
3.8402e-08
4.52668e-08
5.36594e-08
6.15509e-08
6.90689e-08
7.62052e-08
8.36161e-08
9.05887e-08
9.71965e-08
8.35922e-09
1.2651e-08
1.71974e-08
2.12167e-08
2.51124e-08
3.10269e-08
3.8402e-08
4.52668e-08
5.36594e-08
6.15509e-08
6.90689e-08
7.62052e-08
8.36161e-08
9.05887e-08
9.71965e-08
8.35922e-09
1.2651e-08
1.71974e-08
2.12167e-08
2.51124e-08
3.10269e-08
3.8402e-08
4.52668e-08
5.36594e-08
6.15509e-08
6.90689e-08
7.62052e-08
8.36161e-08
9.05887e-08
9.71965e-08
SCALARS Solute_Concentration_H+ float 1
LOOKUP_TABLE default
-4.2519e-05
-5.2825e-05
-6.1633e-05
-6.80701e-05
-7.1606e-05
-7.47814e-05
-7.53747e-05
-7.63832e-05
-7.87919e-05
-7.93639e-05
-8.22268e-05
-8.6483e-05
-9.01021e-05
-9.45525e-05
-9.75938e-05
-4.2519e-05
-5.2825e-05
-6.1633e-05
-6.80701e-05
-7.1606e-05
-7.47814e-05
-7.53747e-05
-7.63832e-05
-7.87919e-05
-7.93639e-05
-8.22268e-05
-8.6483e-05
-9.01021e-05
-9.45525e-05
-9.75938e-05
-4.2519e-05
-5.2825e-05
-6.1633e-05
-6.80701e-05
-7.1606e-05
-7.47814e-05
-7.53747e-05
-7.63832e-05
-7.87919e-05
-7.93639e-05
-8.22268e-05
-8.6483e-05
-9.01021e-05
-9.45525e-05
-9.75938e-05
-4.2519e-05
-5.2825e-05
-6.1633e-05
-6.80701e-05
-7.1606e-05
-7.47814e-05
-7.53747e-05
-7.63832e-05
-7.87919e-05
-7.93639e-05
-8.22268e-05
-8.6483e-05
-9.01021e-05
-9.45525e-05
-9.75938e-05
SCALARS Solute_Concentration_K+ float 1
LOOKUP_TABLE default
1.89683e-05
2.0249e-05
2.15253e-05
2.27914e-05
2.41017e-05
2.62209e-05
2.84953e-05
3.09354e-05
3.33257e-05
3.55583e-05
3.78959e-05
4.00428e-05
4.20981e-05
4.40162e-05
4.58067e-05
1.89683e-05
2.0249e-05
2.15253e-05
2.27914e-05
2.41017e-05
2.62209e-05
2.84953e-05
3.09354e-05
3.33257e-05
3.55583e-05
3.78959e-05
4.00428e-05
4.20981e-05
4.40162e-05
4.58067e-05
1.89683e-05
2.0249e-05
2.15253e-05
2.27914e-05
2.41017e-05
2.62209e-05
2.84953e-05
3.09354e-05
3.33257e-05
3.55583e-05
3.78959e-05
4.00428e-05
4.20981e-05
4.40162e-05
4.58067e-05
1.89683e-05
2.0249e-05
2.15253e-05
2.27914e-05
2.41017e-05
2.62209e-05
2.84953e-05
3.09354e-05
3.33257e-05
3.55583e-05
3.78959e-05
4.00428e-05
4.20981e-05
4.40162e-05
4.58067e-05
SCALARS Solute_Concentration_Mg++ float 1
LOOKUP_TABLE default
6.88481e-05
6.88727e-05
6.88989e-05
6.8922e-05
6.89444e-05
6.89784e-05
6.90208e-05
6.90603e-05
6.91085e-05
6.91539e-05
6.91972e-05
6.92382e-05
6.92808e-05
6.93209e-05
6.93589e-05
6.88481e-05
6.88727e-05
6.88989e-05
6.8922e-05
6.89444e-05
6.89784e-05
6.90208e-05
6.90603e-05
6.91085e-05
6.91539e-05
6.91972e-05
6.92382e-05
6.92808e-05
6.93209e-05
6.93589e-05
6.88481e-05
6.88727e-05
6.88989e-05
6.8922e-05
6.89444e-05
6.89784e-05
6.90208e-05
6.90603e-05
6.91085e-05
6.91539e-05
6.91972e-05
6.92382e-05
6.92808e-05
6.93209e-05
6.93589e-05
6.88481e-05
6.88727e-05
6.88989e-05
6.8922e-05
6.89444e-05
6.89784e-05
6.90208e-05
6.90603e-05
6.91085e-05
6.91539e-05
6.91972e-05
6.92382e-05
6.92808e-05
6.93209e-05
6.93589e-05
SCALARS Solute_Concentration_NO3- float 1
LOOKUP_TABLE default
0.0001
0.0001
0.0001
0.0001
0.0001
0.0001
0.0001
0.0001
0.0001
0.0001
0.0001
0.0001
0.0001
0.0001
0.0001
0.0001
0.0001
0.0001
0.0001
0.0001
0.0001
0.0001
0.0001
0.0001
0.0001
0.0001
0.0001
0.0001
0.0001
0.0001
0.0001
0.0001
0.0001
0.0001
0.0001
0.0001
0.0001
0.0001
0.0001
0.0001
0.0001
0.0001
0.0001
0.0001
0.0001
0.0001
0.0001
0.0001
0.0001
0.0001
0.0001
0.0001
0.0001
0.0001
0.0001
0.0001
0.0001
0.0001
0.0001
0.0001
SCALARS Solute_Concentration_Na+ float 1
LOOKUP_TABLE default
0.000428932
0.00043073
0.000432588
0.0004344
0.000436098
0.000438786
0.000442225
0.000445836
0.000449272
0.000452458
0.000455878
0.000459208
0.000462517
0.000465937
0.000468632
0.000428932
0.00043073
0.000432588
0.0004344
0.000436098
0.000438786
0.000442225
0.000445836
0.000449272
0.000452458
0.000455878
0.000459208
0.000462517
0.000465937
0.000468632
0.000428932
0.00043073
0.000432588
0.0004344
0.000436098
0.000438786
0.000442225
0.000445836
0.000449272
0.000452458
0.000455878
0.000459208
0.000462517
0.000465937
0.000468632
0.000428932
0.00043073
0.000432588
0.0004344
0.000436098
0.000438786
0.000442225
0.000445836
0.000449272
0.000452458
0.000455878
0.000459208
0.000462517
0.000465937
0.000468632
SCALARS Solute_Concentration_SO4-- float 1
LOOKUP_TABLE default
0.000161
0.000161
0.000161
0.000161
0.000161
0.000161
0.000161
0.000161
0.000161
0.000161
0.000161
0.000161
0.000161
0.000161
0.000161
0.000161
0.000161
0.000161
0.000161
0.000161
0.000161
0.000161
0.000161
0.000161
0.000161
0.000161
0.000161
0.000161
0.000161
0.000161
0.000161
0.000161
0.000161
0.000161
0.000161
0.000161
0.000161
0.000161
0.000161
0.000161
0.000161
0.000161
0.000161
0.000161
0.000161
0.000161
0.000161
0.000161
0.000161
0.000161
0.000161
0.000161
0.000161
0.000161
0.000161
0.000161
0.000161
0.000161
0.000161
0.000161
SCALARS Solute_Concentration_SiO2(aq) float 1
LOOKUP_TABLE default
2.03017e-05
2.88766e-05
3.70441e-05
4.43254e-05
5.05245e-05
5.96054e-05
6.93382e-05
7.97699e-05
9.02986e-05
9.95322e-05
0.000110095
0.000120655
0.000130814
0.000141206
0.000149706
2.03017e-05
2.88766e-05
3.70441e-05
4.43254e-05
5.05245e-05
5.96054e-05
6.93382e-05
7.97699e-05
9.02986e-05
9.95322e-05
0.000110095
0.000120655
0.000130814
0.000141206
0.000149706
2.03017e-05
2.88766e-05
3.70441e-05
4.43254e-05
5.05245e-05
5.96054e-05
6.93382e-05
7.97699e-05
9.02986e-05
9.95322e-05
0.000110095
0.000120655
0.000130814
0.000141206
0.000149706
2.03017e-05
2.88766e-05
3.70441e-05
4.43254e-05
5.05245e-05
5.96054e-05
6.93382e-05
7.97699e-05
9.02986e-05
9.95322e-05
0.000110095
0.000120655
0.000130814
0.000141206
0.000149706
SCALARS Solute_Concentration_Sr++ float 1
LOOKUP_TABLE default
5.07e-07
5.07e-07
5.07e-07
5.07e-07
5.07e-07
5.07e-07
5.07e-07
5.07e-07
5.07e-07
5.07e-07
5.07e-07
5.07e-07
5.07e-07
5.07e-07
5.07e-07
5.07e-07
5.07e-07
5.07e-07
5.07e-07
5.07e-07
5.07e-07
5.07e-07
5.07e-07
5.07e-07
5.07e-07
5.07e-07
5.07e-07
5.07e-07
5.07e-07
5.07e-07
5.07e-07
5.07e-07
5.07e-07
5.07e-07
5.07e-07
5.07e-07
5.07e-07
5.07e-07
5.07e-07
5.07e-07
5.07e-07
5.07e-07
5.07e-07
5.07e-07
5.07e-07
5.07e-07
5.07e-07
5.07e-07
5.07e-07
5.07e-07
5.07e-07
5.07e-07
5.07e-07
5.07e-07
5.07e-07
5.07e-07
5.07e-07
5.07e-07
5.07e-07
5.07e-07
SCALARS Reaction_rates_Moles_per_L_porusmedium_per_second_Albite float 1
LOOKUP_TABLE default
1.24993e-16
1.26242e-15
7.24827e-15
1.47226e-14
3.55173e-14
5.64539e-14
7.16344e-14
7.35283e-14
6.41013e-14
6.95899e-14
6.43266e-14
5.45646e-14
6.00298e-14
5.77319e-14
6.03845e-14
1.24993e-16
1.26242e-15
7.24827e-15
1.47226e-14
3.55173e-14
5.64539e-14
7.16344e-14
7.35283e-14
6.41013e-14
6.95899e-14
6.43266e-14
5.45646e-14
6.00298e-14
5.77319e-14
6.03845e-14
1.24993e-16
1.26242e-15
7.24827e-15
1.47226e-14
3.55173e-14
5.64539e-14
7.16344e-14
7.35283e-14
6.41013e-14
6.95899e-14
6.43266e-14
5.45646e-14
6.00298e-14
5.77319e-14
6.03845e-14
1.24993e-16
1.26242e-15
7.24827e-15
1.47226e-14
3.55173e-14
5.64539e-14
7.16344e-14
7.35283e-14
6.41013e-14
6.95899e-14
6.43266e-14
5.45646e-14
6.00298e-14
5.77319e-14
6.03845e-14
SCALARS Reaction_rates_Moles_per_L_porusmedium_per_second_Quartz float 1
LOOKUP_TABLE default
-3.74274e-14
-3.59755e-14
-3.58475e-14
-3.3978e-14
-3.84667e-14
-4.86591e-14
-4.28169e-14
-4.46085e-14
-4.45025e-14
-4.21593e-14
-4.33433e-14
-3.99805e-14
-4.09584e-14
-3.8104e-14
-4.27348e-14
-3.74274e-14
-3.59755e-14
-3.58475e-14
-3.3978e-14
-3.84667e-14
-4.86591e-14
-4.28169e-14
-4.46085e-14
-4.45025e-14
-4.21593e-14
-4.33433e-14
-3.99805e-14
-4.09584e-14
-3.8104e-14
-4.27348e-14
-3.74274e-14
-3.59755e-14
-3.58475e-14
-3.3978e-14
-3.84667e-14
-4.86591e-14
-4.28169e-14
-4.46085e-14
-4.45025e-14
-4.21593e-14
-4.33433e-14
-3.99805e-14
-4.09584e-14
-3.8104e-14
-4.27348e-14
-3.74274e-14
-3.59755e-14
-3.58475e-14
-3.3978e-14
-3.84667e-14
-4.86591e-14
-4.28169e-14
-4.46085e-14
-4.45025e-14
-4.21593e-14
-4.33433e-14
-3.99805e-14
-4.09584e-14
-3.8104e-14
-4.27348e-14
SCALARS Mineral_mass_fraction_Albite float 1
LOOKUP_TABLE default
0.49581
0.502718
0.500879
0.500389
0.503506
0.500452
0.499968
0.499387
0.498909
0.499145
0.505384
0.497345
0.501571
0.500313
0.499393
0.534595
0.439988
0.496145
0.51093
0.512222
0.504199
0.501494
0.494694
0.501738
0.501146
0.498639
0.502096
0.503933
0.495419
0.501799
0.449526
0.517273
0.52042
0.517218
0.490153
0.503724
0.498073
0.502622
0.497288
0.501735
0.498817
0.50035
0.503259
0.499407
0.499572
0.495153
0.52163
0.505987
0.495792
0.482234
0.50254
0.498025
0.502841
0.498148
0.503776
0.498496
0.501013
0.496588
0.500243
0.501243
SCALARS Mineral_mass_fraction_Quartz float 1
LOOKUP_TABLE default
0.50419
0.497282
0.499121
0.499611
0.496494
0.499548
0.500032
0.500613
0.501091
0.500855
0.494616
0.502655
0.498429
0.499687
0.500607
0.465405
0.560012
0.503855
0.48907
0.487778
0.495801
0.498506
0.505306
0.498262
0.498854
0.501361
0.497904
0.496067
0.504581
0.498201
0.550474
0.482727
0.47958
0.482782
0.509847
0.496276
0.501927
0.497378
0.502712
0.498265
0.501183
0.49965
0.496741
0.500593
0.500428
0.504847
0.47837
0.494013
0.504208
0.517766
0.49746
0.501975
0.497159
0.501852
0.496224
0.501504
0.498987
0.503412
0.499757
0.498757
SCALARS Mineral_depletion_ratio_Albite float 1
LOOKUP_TABLE default
8367.08
8356.85
8331.35
8290.87
8306.08
6200.21
6287.67
6602.14
6767.7
6609.21
6261.71
6796.95
6406.91
6437.09
6452.32
8382.32
7205.61
8292.1
7988.41
7796.15
6291.72
6935.03
6756.27
6434.94
6547.77
6212.19
6807.04
6470.16
6641.4
6050.35
7813.92
7800.54
7637.01
8216.06
7856.59
6571.43
6552.12
6640.51
6574.53
6539.03
6384.07
6413.96
6915.87
6537.36
6438.96
8043.92
8007.44
8021.1
8038.56
8018.06
6613.32
6918.64
6247.67
6665.41
6676.77
6036.02
6265.31
6388.52
6533.86
6384.82
SCALARS Mineral_depletion_ratio_Quartz float 1
LOOKUP_TABLE default
7879.05
7874.07
7801.5
7844.57
7859.12
6252.17
6618.99
6669.44
6587.8
6521.48
6574.91
7142.98
6255.22
6381.13
6458.06
7345.78
8778.43
8679.5
7565.84
7384.25
6402.22
6555.3
6393.71
6142.42
6448.69
6713.91
6368.44
6284.47
6423.97
6678.78
8148.94
7840.98
8048.98
8020.61
8453.09
6533.75
6483.13
6134.34
6236.16
6985.19
6885.78
6613.57
6504.63
6463.91
6706
7934.42
7920.46
7878.34
7920.93
7891.6
6350.42
6840.26
6418.25
6611.98
6496.44
6371.15
6801.95
6039.65
6598.15
6673.87
