# vtk DataFile Version 2.0
Unstructured Grid Ptrack_cells
ASCII

DATASET UNSTRUCTURED_GRID
POINTS 80 float
0 99.9864 0.0
0 99.8856 0.0
0 99.7848 0.0
0 99.6841 0.0
0 99.5833 0.0
0 99.4825 0.0
0 99.3329 0.0
0 99.1833 0.0
0 99.0337 0.0
0 98.8841 0.0
0 98.7344 0.0
0 98.5848 0.0
0 98.4352 0.0
0 98.2856 0.0
0 98.136 0.0
0 97.9864 0.0
0.1 99.9864 0.0
0.1 99.8856 0.0
0.1 99.7848 0.0
0.1 99.6841 0.0
0.1 99.5833 0.0
0.1 99.4825 0.0
0.1 99.3329 0.0
0.1 99.1833 0.0
0.1 99.0337 0.0
0.1 98.8841 0.0
0.1 98.7344 0.0
0.1 98.5848 0.0
0.1 98.4352 0.0
0.1 98.2856 0.0
0.1 98.136 0.0
0.1 97.9864 0.0
0.2 99.9864 0.0
0.2 99.8856 0.0
0.2 99.7848 0.0
0.2 99.6841 0.0
0.2 99.5833 0.0
0.2 99.4825 0.0
0.2 99.3329 0.0
0.2 99.1833 0.0
0.2 99.0337 0.0
0.2 98.8841 0.0
0.2 98.7344 0.0
0.2 98.5848 0.0
0.2 98.4352 0.0
0.2 98.2856 0.0
0.2 98.136 0.0
0.2 97.9864 0.0
0.3 99.9864 0.0
0.3 99.8856 0.0
0.3 99.7848 0.0
0.3 99.6841 0.0
0.3 99.5833 0.0
0.3 99.4825 0.0
0.3 99.3329 0.0
0.3 99.1833 0.0
0.3 99.0337 0.0
0.3 98.8841 0.0
0.3 98.7344 0.0
0.3 98.5848 0.0
0.3 98.4352 0.0
0.3 98.2856 0.0
0.3 98.136 0.0
0.3 97.9864 0.0
0.4 99.9864 0.0
0.4 99.8856 0.0
0.4 99.7848 0.0
0.4 99.6841 0.0
0.4 99.5833 0.0
0.4 99.4825 0.0
0.4 99.3329 0.0
0.4 99.1833 0.0
0.4 99.0337 0.0
0.4 98.8841 0.0
0.4 98.7344 0.0
0.4 98.5848 0.0
0.4 98.4352 0.0
0.4 98.2856 0.0
0.4 98.136 0.0
0.4 97.9864 0.0

CELLS 60 300
4 0 16 17 1
4 1 17 18 2
4 2 18 19 3
4 3 19 20 4
4 4 20 21 5
4 5 21 22 6
4 6 22 23 7
4 7 23 24 8
4 8 24 25 9
4 9 25 26 10
4 10 26 27 11
4 11 27 28 12
4 12 28 29 13
4 13 29 30 14
4 14 30 31 15
4 16 32 33 17
4 17 33 34 18
4 18 34 35 19
4 19 35 36 20
4 20 36 37 21
4 21 37 38 22
4 22 38 39 23
4 23 39 40 24
4 24 40 41 25
4 25 41 42 26
4 26 42 43 27
4 27 43 44 28
4 28 44 45 29
4 29 45 46 30
4 30 46 47 31
4 32 48 49 33
4 33 49 50 34
4 34 50 51 35
4 35 51 52 36
4 36 52 53 37
4 37 53 54 38
4 38 54 55 39
4 39 55 56 40
4 40 56 57 41
4 41 57 58 42
4 42 58 59 43
4 43 59 60 44
4 44 60 61 45
4 45 61 62 46
4 46 62 63 47
4 48 64 65 49
4 49 65 66 50
4 50 66 67 51
4 51 67 68 52
4 52 68 69 53
4 53 69 70 54
4 54 70 71 55
4 55 71 72 56
4 56 72 73 57
4 57 73 74 58
4 58 74 75 59
4 59 75 76 60
4 60 76 77 61
4 61 77 78 62
4 62 78 79 63

CELL_TYPES 60
9
9
9
9
9
9
9
9
9
9
9
9
9
9
9
9
9
9
9
9
9
9
9
9
9
9
9
9
9
9
9
9
9
9
9
9
9
9
9
9
9
9
9
9
9
9
9
9
9
9
9
9
9
9
9
9
9
9
9
9

CELL_DATA 60
SCALARS SOIL_OR_PARENT int 1
LOOKUP_TABLE default
1
1
1
1
1
0
0
0
0
0
0
0
0
0
0
1
1
1
1
1
0
0
0
0
0
0
0
0
0
0
1
1
1
1
1
0
0
0
0
0
0
0
0
0
0
1
1
1
1
1
0
0
0
0
0
0
0
0
0
0
SCALARS CELL_NUM int 1
LOOKUP_TABLE default
0
1
2
3
4
5
6
7
8
9
10
11
12
13
14
15
16
17
18
19
20
21
22
23
24
25
26
27
28
29
30
31
32
33
34
35
36
37
38
39
40
41
42
43
44
45
46
47
48
49
50
51
52
53
54
55
56
57
58
59
SCALARS Mineral_volume_percents_Albite float 1
LOOKUP_TABLE default
649316
675210
682946
669917
626786
660620
651389
664823
650991
666646
664260
647249
677265
655190
628580
677888
697152
630140
586820
727037
653108
671856
648497
662715
672720
649381
661602
658951
666479
625649
619697
679893
642993
668738
721609
658426
661292
659630
661297
662932
658286
659126
663831
656016
629890
677547
679052
653375
631295
673560
650478
665155
660911
652743
663793
659136
665282
650296
665272
630423
SCALARS Mineral_volume_percents_Quartz float 1
LOOKUP_TABLE default
599451
685490
682437
706105
643690
657886
649667
658954
655285
675730
649831
670331
652653
658052
628305
807826
551964
705245
566800
675194
660918
652392
664729
654076
662581
662236
653585
663764
667951
619008
681203
687913
664933
614939
691341
643716
667119
659331
660343
652003
657657
666097
656654
669373
622208
644777
641112
660580
654423
692895
674958
649346
660169
663421
657783
645943
674148
656171
655743
634655
SCALARS Mineral_specific_surface_area_m2perg_Albite float 1
LOOKUP_TABLE default
0.090566
0.090566
0.090566
0.090566
0.090566
0.090566
0.090566
0.090566
0.090566
0.090566
0.090566
0.090566
0.090566
0.090566
0.090566
0.090566
0.090566
0.090566
0.090566
0.090566
0.090566
0.090566
0.090566
0.090566
0.090566
0.090566
0.090566
0.090566
0.090566
0.090566
0.090566
0.090566
0.090566
0.090566
0.090566
0.090566
0.090566
0.090566
0.090566
0.090566
0.090566
0.090566
0.090566
0.090566
0.090566
0.090566
0.090566
0.090566
0.090566
0.090566
0.090566
0.090566
0.090566
0.090566
0.090566
0.090566
0.090566
0.090566
0.090566
0.090566
SCALARS Mineral_specific_surface_area_m2perg_Quartz float 1
LOOKUP_TABLE default
0.090566
0.090566
0.090566
0.090566
0.090566
0.090566
0.090566
0.090566
0.090566
0.090566
0.090566
0.090566
0.090566
0.090566
0.090566
0.090566
0.090566
0.090566
0.090566
0.090566
0.090566
0.090566
0.090566
0.090566
0.090566
0.090566
0.090566
0.090566
0.090566
0.090566
0.090566
0.090566
0.090566
0.090566
0.090566
0.090566
0.090566
0.090566
0.090566
0.090566
0.090566
0.090566
0.090566
0.090566
0.090566
0.090566
0.090566
0.090566
0.090566
0.090566
0.090566
0.090566
0.090566
0.090566
0.090566
0.090566
0.090566
0.090566
0.090566
0.090566
SCALARS Mineral_mass_kg_Albite float 1
LOOKUP_TABLE default
173407
180322
182388
178909
167390
261916
258256
263582
258098
264305
263359
256615
268515
259763
249213
181037
186182
168286
156717
194163
258937
266370
257109
262746
266713
257460
262305
261254
264238
248051
165497
181573
171718
178594
192714
261046
262182
261523
262184
262832
260990
261323
263189
260090
249732
180947
181348
174491
168594
179882
257895
263714
262031
258793
263173
261327
263764
257822
263760
249943
SCALARS Mineral_mass_kg_Quartz float 1
LOOKUP_TABLE default
160090
183068
182252
188573
171905
260832
257573
261255
259801
267906
257638
265766
258757
260897
249104
215739
147408
188343
151370
180318
262034
258653
263545
259321
262693
262556
259126
263162
264822
245418
181923
183715
177578
164226
184630
255214
264492
261405
261806
258499
260741
264087
260343
265386
246687
172195
171216
176415
174771
185045
267600
257446
261737
263026
260791
256097
267279
260152
259982
251621
SCALARS Mineral_surface_area_m2_Albite float 1
LOOKUP_TABLE default
1.57048e+07
1.63311e+07
1.65182e+07
1.62031e+07
1.51599e+07
2.37207e+07
2.33892e+07
2.38716e+07
2.33749e+07
2.3937e+07
2.38514e+07
2.32406e+07
2.43183e+07
2.35257e+07
2.25702e+07
1.63958e+07
1.68618e+07
1.5241e+07
1.41932e+07
1.75846e+07
2.34509e+07
2.41241e+07
2.32854e+07
2.37959e+07
2.41551e+07
2.33171e+07
2.37559e+07
2.36607e+07
2.3931e+07
2.2465e+07
1.49884e+07
1.64443e+07
1.55518e+07
1.61745e+07
1.74533e+07
2.36419e+07
2.37448e+07
2.36851e+07
2.3745e+07
2.38037e+07
2.36368e+07
2.3667e+07
2.3836e+07
2.35554e+07
2.26173e+07
1.63876e+07
1.6424e+07
1.5803e+07
1.52689e+07
1.62912e+07
2.33565e+07
2.38835e+07
2.37311e+07
2.34378e+07
2.38346e+07
2.36674e+07
2.38881e+07
2.335e+07
2.38877e+07
2.26364e+07
SCALARS Mineral_surface_area_m2_Quartz float 1
LOOKUP_TABLE default
1.44987e+07
1.65797e+07
1.65059e+07
1.70783e+07
1.55687e+07
2.36225e+07
2.33274e+07
2.36609e+07
2.35291e+07
2.42632e+07
2.33333e+07
2.40693e+07
2.34346e+07
2.36284e+07
2.25603e+07
1.95386e+07
1.33502e+07
1.70575e+07
1.3709e+07
1.63307e+07
2.37313e+07
2.34252e+07
2.38682e+07
2.34857e+07
2.37911e+07
2.37787e+07
2.34681e+07
2.38335e+07
2.39839e+07
2.22265e+07
1.6476e+07
1.66383e+07
1.60825e+07
1.48733e+07
1.67212e+07
2.31137e+07
2.3954e+07
2.36744e+07
2.37107e+07
2.34113e+07
2.36143e+07
2.39173e+07
2.35783e+07
2.40349e+07
2.23414e+07
1.5595e+07
1.55064e+07
1.59772e+07
1.58283e+07
1.67588e+07
2.42355e+07
2.33158e+07
2.37045e+07
2.38212e+07
2.36188e+07
2.31936e+07
2.42064e+07
2.35609e+07
2.35456e+07
2.27883e+07
SCALARS Solute_Concentration_Al+++ float 1
LOOKUP_TABLE default
6.13522e-06
8.5158e-06
1.03771e-05
1.14705e-05
1.16207e-05
1.10378e-05
9.28239e-06
7.55658e-06
6.36187e-06
4.69461e-06
3.68021e-06
3.22612e-06
2.59559e-06
2.25382e-06
1.72905e-06
6.13522e-06
8.5158e-06
1.03771e-05
1.14705e-05
1.16207e-05
1.10378e-05
9.28239e-06
7.55658e-06
6.36187e-06
4.69461e-06
3.68021e-06
3.22612e-06
2.59559e-06
2.25382e-06
1.72905e-06
6.13522e-06
8.5158e-06
1.03771e-05
1.14705e-05
1.16207e-05
1.10378e-05
9.28239e-06
7.55658e-06
6.36187e-06
4.69461e-06
3.68021e-06
3.22612e-06
2.59559e-06
2.25382e-06
1.72905e-06
6.13522e-06
8.5158e-06
1.03771e-05
1.14705e-05
1.16207e-05
1.10378e-05
9.28239e-06
7.55658e-06
6.36187e-06
4.69461e-06
3.68021e-06
3.22612e-06
2.59559e-06
2.25382e-06
1.72905e-06
SCALARS Solute_Concentration_CO2(aq) float 1
LOOKUP_TABLE default
0.00964234
0.0094933
0.00936644
0.00927138
0.00921234
0.00914699
0.00910561
0.00905555
0.0089879
0.00894332
0.00886696
0.00877443
0.00868895
0.00859295
0.00851923
0.00964234
0.0094933
0.00936644
0.00927138
0.00921234
0.00914699
0.00910561
0.00905555
0.0089879
0.00894332
0.00886696
0.00877443
0.00868895
0.00859295
0.00851923
0.00964234
0.0094933
0.00936644
0.00927138
0.00921234
0.00914699
0.00910561
0.00905555
0.0089879
0.00894332
0.00886696
0.00877443
0.00868895
0.00859295
0.00851923
0.00964234
0.0094933
0.00936644
0.00927138
0.00921234
0.00914699
0.00910561
0.00905555
0.0089879
0.00894332
0.00886696
0.00877443
0.00868895
0.00859295
0.00851923
SCALARS Solute_Concentration_Ca++ float 1
LOOKUP_TABLE default
9.0701e-05
9.07016e-05
9.07021e-05
9.07027e-05
9.07031e-05
9.07039e-05
9.07048e-05
9.07057e-05
9.07067e-05
9.07077e-05
9.07086e-05
9.07095e-05
9.07104e-05
9.07113e-05
9.07122e-05
9.0701e-05
9.07016e-05
9.07021e-05
9.07027e-05
9.07031e-05
9.07039e-05
9.07048e-05
9.07057e-05
9.07067e-05
9.07077e-05
9.07086e-05
9.07095e-05
9.07104e-05
9.07113e-05
9.07122e-05
9.0701e-05
9.07016e-05
9.07021e-05
9.07027e-05
9.07031e-05
9.07039e-05
9.07048e-05
9.07057e-05
9.07067e-05
9.07077e-05
9.07086e-05
9.07095e-05
9.07104e-05
9.07113e-05
9.07122e-05
9.0701e-05
9.07016e-05
9.07021e-05
9.07027e-05
9.07031e-05
9.07039e-05
9.07048e-05
9.07057e-05
9.07067e-05
9.07077e-05
9.07086e-05
9.07095e-05
9.07104e-05
9.07113e-05
9.07122e-05
SCALARS Solute_Concentration_Cl- float 1
LOOKUP_TABLE default
0.000465
0.000465
0.000465
0.000465
0.000465
0.000465
0.000465
0.000465
0.000465
0.000465
0.000465
0.000465
0.000465
0.000465
0.000465
0.000465
0.000465
0.000465
0.000465
0.000465
0.000465
0.000465
0.000465
0.000465
0.000465
0.000465
0.000465
0.000465
0.000465
0.000465
0.000465
0.000465
0.000465
0.000465
0.000465
0.000465
0.000465
0.000465
0.000465
0.000465
0.000465
0.000465
0.000465
0.000465
0.000465
0.000465
0.000465
0.000465
0.000465
0.000465
0.000465
0.000465
0.000465
0.000465
0.000465
0.000465
0.000465
0.000465
0.000465
0.000465
SCALARS Solute_Concentration_Fe++ float 1
LOOKUP_TABLE default
2.0998e-08
3.17274e-08
4.30936e-08
5.31417e-08
6.28811e-08
7.76673e-08
9.6105e-08
1.13267e-07
1.34249e-07
1.53977e-07
1.72772e-07
1.90613e-07
2.0914e-07
2.26572e-07
2.43091e-07
2.0998e-08
3.17274e-08
4.30936e-08
5.31417e-08
6.28811e-08
7.76673e-08
9.6105e-08
1.13267e-07
1.34249e-07
1.53977e-07
1.72772e-07
1.90613e-07
2.0914e-07
2.26572e-07
2.43091e-07
2.0998e-08
3.17274e-08
4.30936e-08
5.31417e-08
6.28811e-08
7.76673e-08
9.6105e-08
1.13267e-07
1.34249e-07
1.53977e-07
1.72772e-07
1.90613e-07
2.0914e-07
2.26572e-07
2.43091e-07
2.0998e-08
3.17274e-08
4.30936e-08
5.31417e-08
6.28811e-08
7.76673e-08
9.6105e-08
1.13267e-07
1.34249e-07
1.53977e-07
1.72772e-07
1.90613e-07
2.0914e-07
2.26572e-07
2.43091e-07
SCALARS Solute_Concentration_Fe+++ float 1
LOOKUP_TABLE default
8.35922e-09
1.2651e-08
1.71974e-08
2.12167e-08
2.51124e-08
3.10269e-08
3.8402e-08
4.52668e-08
5.36594e-08
6.15509e-08
6.90689e-08
7.62052e-08
8.36161e-08
9.05887e-08
9.71965e-08
8.35922e-09
1.2651e-08
1.71974e-08
2.12167e-08
2.51124e-08
3.10269e-08
3.8402e-08
4.52668e-08
5.36594e-08
6.15509e-08
6.90689e-08
7.62052e-08
8.36161e-08
9.05887e-08
9.71965e-08
8.35922e-09
1.2651e-08
1.71974e-08
2.12167e-08
2.51124e-08
3.10269e-08
3.8402e-08
4.52668e-08
5.36594e-08
6.15509e-08
6.90689e-08
7.62052e-08
8.36161e-08
9.05887e-08
9.71965e-08
8.35922e-09
1.2651e-08
1.71974e-08
2.12167e-08
2.51124e-08
3.10269e-08
3.8402e-08
4.52668e-08
5.36594e-08
6.15509e-08
6.90689e-08
7.62052e-08
8.36161e-08
9.05887e-08
9.71965e-08
SCALARS Solute_Concentration_H+ float 1
LOOKUP_TABLE default
-4.2519e-05
-5.2825e-05
-6.1633e-05
-6.80701e-05
-7.1606e-05
-7.47814e-05
-7.53747e-05
-7.63832e-05
-7.87919e-05
-7.93639e-05
-8.22268e-05
-8.6483e-05
-9.01021e-05
-9.45525e-05
-9.75938e-05
-4.2519e-05
-5.2825e-05
-6.1633e-05
-6.80701e-05
-7.1606e-05
-7.47814e-05
-7.53747e-05
-7.63832e-05
-7.87919e-05
-7.93639e-05
-8.22268e-05
-8.6483e-05
-9.01021e-05
-9.45525e-05
-9.75938e-05
-4.2519e-05
-5.2825e-05
-6.1633e-05
-6.80701e-05
-7.1606e-05
-7.47814e-05
-7.53747e-05
-7.63832e-05
-7.87919e-05
-7.93639e-05
-8.22268e-05
-8.6483e-05
-9.01021e-05
-9.45525e-05
-9.75938e-05
-4.2519e-05
-5.2825e-05
-6.1633e-05
-6.80701e-05
-7.1606e-05
-7.47814e-05
-7.53747e-05
-7.63832e-05
-7.87919e-05
-7.93639e-05
-8.22268e-05
-8.6483e-05
-9.01021e-05
-9.45525e-05
-9.75938e-05
SCALARS Solute_Concentration_K+ float 1
LOOKUP_TABLE default
1.89683e-05
2.0249e-05
2.15253e-05
2.27914e-05
2.41017e-05
2.62209e-05
2.84953e-05
3.09354e-05
3.33257e-05
3.55583e-05
3.78959e-05
4.00428e-05
4.20981e-05
4.40162e-05
4.58067e-05
1.89683e-05
2.0249e-05
2.15253e-05
2.27914e-05
2.41017e-05
2.62209e-05
2.84953e-05
3.09354e-05
3.33257e-05
3.55583e-05
3.78959e-05
4.00428e-05
4.20981e-05
4.40162e-05
4.58067e-05
1.89683e-05
2.0249e-05
2.15253e-05
2.27914e-05
2.41017e-05
2.62209e-05
2.84953e-05
3.09354e-05
3.33257e-05
3.55583e-05
3.78959e-05
4.00428e-05
4.20981e-05
4.40162e-05
4.58067e-05
1.89683e-05
2.0249e-05
2.15253e-05
2.27914e-05
2.41017e-05
2.62209e-05
2.84953e-05
3.09354e-05
3.33257e-05
3.55583e-05
3.78959e-05
4.00428e-05
4.20981e-05
4.40162e-05
4.58067e-05
SCALARS Solute_Concentration_Mg++ float 1
LOOKUP_TABLE default
6.88481e-05
6.88727e-05
6.88989e-05
6.8922e-05
6.89444e-05
6.89784e-05
6.90208e-05
6.90603e-05
6.91085e-05
6.91539e-05
6.91972e-05
6.92382e-05
6.92808e-05
6.93209e-05
6.93589e-05
6.88481e-05
6.88727e-05
6.88989e-05
6.8922e-05
6.89444e-05
6.89784e-05
6.90208e-05
6.90603e-05
6.91085e-05
6.91539e-05
6.91972e-05
6.92382e-05
6.92808e-05
6.93209e-05
6.93589e-05
6.88481e-05
6.88727e-05
6.88989e-05
6.8922e-05
6.89444e-05
6.89784e-05
6.90208e-05
6.90603e-05
6.91085e-05
6.91539e-05
6.91972e-05
6.92382e-05
6.92808e-05
6.93209e-05
6.93589e-05
6.88481e-05
6.88727e-05
6.88989e-05
6.8922e-05
6.89444e-05
6.89784e-05
6.90208e-05
6.90603e-05
6.91085e-05
6.91539e-05
6.91972e-05
6.92382e-05
6.92808e-05
6.93209e-05
6.93589e-05
SCALARS Solute_Concentration_NO3- float 1
LOOKUP_TABLE default
0.0001
0.0001
0.0001
0.0001
0.0001
0.0001
0.0001
0.0001
0.0001
0.0001
0.0001
0.0001
0.0001
0.0001
0.0001
0.0001
0.0001
0.0001
0.0001
0.0001
0.0001
0.0001
0.0001
0.0001
0.0001
0.0001
0.0001
0.0001
0.0001
0.0001
0.0001
0.0001
0.0001
0.0001
0.0001
0.0001
0.0001
0.0001
0.0001
0.0001
0.0001
0.0001
0.0001
0.0001
0.0001
0.0001
0.0001
0.0001
0.0001
0.0001
0.0001
0.0001
0.0001
0.0001
0.0001
0.0001
0.0001
0.0001
0.0001
0.0001
SCALARS Solute_Concentration_Na+ float 1
LOOKUP_TABLE default
0.000428932
0.00043073
0.000432588
0.0004344
0.000436098
0.000438786
0.000442225
0.000445836
0.000449272
0.000452458
0.000455878
0.000459208
0.000462517
0.000465937
0.000468632
0.000428932
0.00043073
0.000432588
0.0004344
0.000436098
0.000438786
0.000442225
0.000445836
0.000449272
0.000452458
0.000455878
0.000459208
0.000462517
0.000465937
0.000468632
0.000428932
0.00043073
0.000432588
0.0004344
0.000436098
0.000438786
0.000442225
0.000445836
0.000449272
0.000452458
0.000455878
0.000459208
0.000462517
0.000465937
0.000468632
0.000428932
0.00043073
0.000432588
0.0004344
0.000436098
0.000438786
0.000442225
0.000445836
0.000449272
0.000452458
0.000455878
0.000459208
0.000462517
0.000465937
0.000468632
SCALARS Solute_Concentration_SO4-- float 1
LOOKUP_TABLE default
0.000161
0.000161
0.000161
0.000161
0.000161
0.000161
0.000161
0.000161
0.000161
0.000161
0.000161
0.000161
0.000161
0.000161
0.000161
0.000161
0.000161
0.000161
0.000161
0.000161
0.000161
0.000161
0.000161
0.000161
0.000161
0.000161
0.000161
0.000161
0.000161
0.000161
0.000161
0.000161
0.000161
0.000161
0.000161
0.000161
0.000161
0.000161
0.000161
0.000161
0.000161
0.000161
0.000161
0.000161
0.000161
0.000161
0.000161
0.000161
0.000161
0.000161
0.000161
0.000161
0.000161
0.000161
0.000161
0.000161
0.000161
0.000161
0.000161
0.000161
SCALARS Solute_Concentration_SiO2(aq) float 1
LOOKUP_TABLE default
2.03017e-05
2.88766e-05
3.70441e-05
4.43254e-05
5.05245e-05
5.96054e-05
6.93382e-05
7.97699e-05
9.02986e-05
9.95322e-05
0.000110095
0.000120655
0.000130814
0.000141206
0.000149706
2.03017e-05
2.88766e-05
3.70441e-05
4.43254e-05
5.05245e-05
5.96054e-05
6.93382e-05
7.97699e-05
9.02986e-05
9.95322e-05
0.000110095
0.000120655
0.000130814
0.000141206
0.000149706
2.03017e-05
2.88766e-05
3.70441e-05
4.43254e-05
5.05245e-05
5.96054e-05
6.93382e-05
7.97699e-05
9.02986e-05
9.95322e-05
0.000110095
0.000120655
0.000130814
0.000141206
0.000149706
2.03017e-05
2.88766e-05
3.70441e-05
4.43254e-05
5.05245e-05
5.96054e-05
6.93382e-05
7.97699e-05
9.02986e-05
9.95322e-05
0.000110095
0.000120655
0.000130814
0.000141206
0.000149706
SCALARS Solute_Concentration_Sr++ float 1
LOOKUP_TABLE default
5.07e-07
5.07e-07
5.07e-07
5.07e-07
5.07e-07
5.07e-07
5.07e-07
5.07e-07
5.07e-07
5.07e-07
5.07e-07
5.07e-07
5.07e-07
5.07e-07
5.07e-07
5.07e-07
5.07e-07
5.07e-07
5.07e-07
5.07e-07
5.07e-07
5.07e-07
5.07e-07
5.07e-07
5.07e-07
5.07e-07
5.07e-07
5.07e-07
5.07e-07
5.07e-07
5.07e-07
5.07e-07
5.07e-07
5.07e-07
5.07e-07
5.07e-07
5.07e-07
5.07e-07
5.07e-07
5.07e-07
5.07e-07
5.07e-07
5.07e-07
5.07e-07
5.07e-07
5.07e-07
5.07e-07
5.07e-07
5.07e-07
5.07e-07
5.07e-07
5.07e-07
5.07e-07
5.07e-07
5.07e-07
5.07e-07
5.07e-07
5.07e-07
5.07e-07
5.07e-07
SCALARS Reaction_rates_Moles_per_L_porusmedium_per_second_Albite float 1
LOOKUP_TABLE default
1.24993e-16
1.26242e-15
7.24827e-15
1.47226e-14
3.55173e-14
5.64539e-14
7.16344e-14
7.35283e-14
6.41013e-14
6.95899e-14
6.43266e-14
5.45646e-14
6.00298e-14
5.77319e-14
6.03845e-14
1.24993e-16
1.26242e-15
7.24827e-15
1.47226e-14
3.55173e-14
5.64539e-14
7.16344e-14
7.35283e-14
6.41013e-14
6.95899e-14
6.43266e-14
5.45646e-14
6.00298e-14
5.77319e-14
6.03845e-14
1.24993e-16
1.26242e-15
7.24827e-15
1.47226e-14
3.55173e-14
5.64539e-14
7.16344e-14
7.35283e-14
6.41013e-14
6.95899e-14
6.43266e-14
5.45646e-14
6.00298e-14
5.77319e-14
6.03845e-14
1.24993e-16
1.26242e-15
7.24827e-15
1.47226e-14
3.55173e-14
5.64539e-14
7.16344e-14
7.35283e-14
6.41013e-14
6.95899e-14
6.43266e-14
5.45646e-14
6.00298e-14
5.77319e-14
6.03845e-14
SCALARS Reaction_rates_Moles_per_L_porusmedium_per_second_Quartz float 1
LOOKUP_TABLE default
-3.74274e-14
-3.59755e-14
-3.58475e-14
-3.3978e-14
-3.84667e-14
-4.86591e-14
-4.28169e-14
-4.46085e-14
-4.45025e-14
-4.21593e-14
-4.33433e-14
-3.99805e-14
-4.09584e-14
-3.8104e-14
-4.27348e-14
-3.74274e-14
-3.59755e-14
-3.58475e-14
-3.3978e-14
-3.84667e-14
-4.86591e-14
-4.28169e-14
-4.46085e-14
-4.45025e-14
-4.21593e-14
-4.33433e-14
-3.99805e-14
-4.09584e-14
-3.8104e-14
-4.27348e-14
-3.74274e-14
-3.59755e-14
-3.58475e-14
-3.3978e-14
-3.84667e-14
-4.86591e-14
-4.28169e-14
-4.46085e-14
-4.45025e-14
-4.21593e-14
-4.33433e-14
-3.99805e-14
-4.09584e-14
-3.8104e-14
-4.27348e-14
-3.74274e-14
-3.59755e-14
-3.58475e-14
-3.3978e-14
-3.84667e-14
-4.86591e-14
-4.28169e-14
-4.46085e-14
-4.45025e-14
-4.21593e-14
-4.33433e-14
-3.99805e-14
-4.09584e-14
-3.8104e-14
-4.27348e-14
SCALARS Mineral_mass_fraction_Albite float 1
LOOKUP_TABLE default
0.519655
0.49628
0.500187
0.487041
0.493453
0.501026
0.500655
0.502187
0.498385
0.496669
0.505411
0.491376
0.50912
0.498931
0.500112
0.456854
0.557205
0.472296
0.508533
0.518229
0.497077
0.507244
0.493916
0.503235
0.503744
0.495177
0.503006
0.498212
0.49946
0.50263
0.476721
0.497113
0.491742
0.520637
0.510564
0.505567
0.497843
0.500115
0.50036
0.504097
0.500239
0.497413
0.502681
0.49504
0.503024
0.51221
0.514158
0.497302
0.491146
0.49303
0.490906
0.505927
0.50028
0.496008
0.502243
0.504982
0.496743
0.497789
0.503557
0.498358
SCALARS Mineral_mass_fraction_Quartz float 1
LOOKUP_TABLE default
0.480345
0.50372
0.499813
0.512959
0.506547
0.498974
0.499345
0.497813
0.501615
0.503331
0.494589
0.508624
0.49088
0.501069
0.499888
0.543146
0.442795
0.527704
0.491467
0.481771
0.502923
0.492756
0.506084
0.496765
0.496256
0.504823
0.496994
0.501788
0.50054
0.49737
0.523279
0.502887
0.508258
0.479363
0.489436
0.494433
0.502157
0.499885
0.49964
0.495903
0.499761
0.502587
0.497319
0.50496
0.496976
0.48779
0.485842
0.502698
0.508854
0.50697
0.509094
0.494073
0.49972
0.503992
0.497757
0.495018
0.503257
0.502211
0.496443
0.501642
SCALARS Mineral_depletion_ratio_Albite float 1
LOOKUP_TABLE default
20587.3
20471.1
20550.7
20521.6
20589.6
15301.4
15747.9
16362.6
16824.8
16381.8
15362.3
17170.5
15591.5
16178.5
15460.1
20457.5
19675.8
18701.3
17830.2
20974.2
15741.6
17001.1
16924.3
15922
16062.9
15676.5
16692.9
16048.5
16352.8
14672.3
18613.7
18838.6
19297.5
19273.1
20184.2
16182.8
16326.9
16566
16252.3
16143.9
15817.1
16101.4
16880.7
16349.1
15304.9
19791.1
19790.8
19758.4
19793.1
19846.4
16494
16940.6
15577
16576.7
16337.6
15115.3
15497
15985.9
16200.1
15135
SCALARS Mineral_depletion_ratio_Quartz float 1
LOOKUP_TABLE default
19275.8
19392.4
19362.4
19307.4
19322.7
15643.9
16525.5
16446.4
16280.5
16014.6
16661.3
17400.6
15544.4
15882.5
15620.1
22233.8
17422.1
20236.2
17422.3
19718.2
15926.7
16234.7
15642.5
15395.5
15966.2
16604.3
15776.3
15735.2
15833
16192.3
20660.4
19524.8
19248.5
19555.2
19691
16324.8
15883.7
15338
15473
17496.2
16967
16418.4
16139.6
16007.6
16301.1
19631.4
19556.5
19397.5
19585.8
19483.2
15833.4
16918.4
16004.8
16303.5
16117.7
15977.9
16537.9
15091.1
16469.6
16048
