# vtk DataFile Version 2.0
Unstructured Grid Ptrack_cells
ASCII

DATASET UNSTRUCTURED_GRID
POINTS 80 float
0 99.9994 0.0
0 99.8994 0.0
0 99.7993 0.0
0 99.6993 0.0
0 99.5993 0.0
0 99.4993 0.0
0 99.3493 0.0
0 99.1993 0.0
0 99.0493 0.0
0 98.8993 0.0
0 98.7493 0.0
0 98.5993 0.0
0 98.4494 0.0
0 98.2994 0.0
0 98.1494 0.0
0 97.9994 0.0
0.1 99.9994 0.0
0.1 99.8994 0.0
0.1 99.7993 0.0
0.1 99.6993 0.0
0.1 99.5993 0.0
0.1 99.4993 0.0
0.1 99.3493 0.0
0.1 99.1993 0.0
0.1 99.0493 0.0
0.1 98.8993 0.0
0.1 98.7493 0.0
0.1 98.5993 0.0
0.1 98.4494 0.0
0.1 98.2994 0.0
0.1 98.1494 0.0
0.1 97.9994 0.0
0.2 99.9994 0.0
0.2 99.8994 0.0
0.2 99.7993 0.0
0.2 99.6993 0.0
0.2 99.5993 0.0
0.2 99.4993 0.0
0.2 99.3493 0.0
0.2 99.1993 0.0
0.2 99.0493 0.0
0.2 98.8993 0.0
0.2 98.7493 0.0
0.2 98.5993 0.0
0.2 98.4494 0.0
0.2 98.2994 0.0
0.2 98.1494 0.0
0.2 97.9994 0.0
0.3 99.9994 0.0
0.3 99.8994 0.0
0.3 99.7993 0.0
0.3 99.6993 0.0
0.3 99.5993 0.0
0.3 99.4993 0.0
0.3 99.3493 0.0
0.3 99.1993 0.0
0.3 99.0493 0.0
0.3 98.8993 0.0
0.3 98.7493 0.0
0.3 98.5993 0.0
0.3 98.4494 0.0
0.3 98.2994 0.0
0.3 98.1494 0.0
0.3 97.9994 0.0
0.4 99.9994 0.0
0.4 99.8994 0.0
0.4 99.7993 0.0
0.4 99.6993 0.0
0.4 99.5993 0.0
0.4 99.4993 0.0
0.4 99.3493 0.0
0.4 99.1993 0.0
0.4 99.0493 0.0
0.4 98.8993 0.0
0.4 98.7493 0.0
0.4 98.5993 0.0
0.4 98.4494 0.0
0.4 98.2994 0.0
0.4 98.1494 0.0
0.4 97.9994 0.0

CELLS 60 300
4 0 16 17 1
4 1 17 18 2
4 2 18 19 3
4 3 19 20 4
4 4 20 21 5
4 5 21 22 6
4 6 22 23 7
4 7 23 24 8
4 8 24 25 9
4 9 25 26 10
4 10 26 27 11
4 11 27 28 12
4 12 28 29 13
4 13 29 30 14
4 14 30 31 15
4 16 32 33 17
4 17 33 34 18
4 18 34 35 19
4 19 35 36 20
4 20 36 37 21
4 21 37 38 22
4 22 38 39 23
4 23 39 40 24
4 24 40 41 25
4 25 41 42 26
4 26 42 43 27
4 27 43 44 28
4 28 44 45 29
4 29 45 46 30
4 30 46 47 31
4 32 48 49 33
4 33 49 50 34
4 34 50 51 35
4 35 51 52 36
4 36 52 53 37
4 37 53 54 38
4 38 54 55 39
4 39 55 56 40
4 40 56 57 41
4 41 57 58 42
4 42 58 59 43
4 43 59 60 44
4 44 60 61 45
4 45 61 62 46
4 46 62 63 47
4 48 64 65 49
4 49 65 66 50
4 50 66 67 51
4 51 67 68 52
4 52 68 69 53
4 53 69 70 54
4 54 70 71 55
4 55 71 72 56
4 56 72 73 57
4 57 73 74 58
4 58 74 75 59
4 59 75 76 60
4 60 76 77 61
4 61 77 78 62
4 62 78 79 63

CELL_TYPES 60
9
9
9
9
9
9
9
9
9
9
9
9
9
9
9
9
9
9
9
9
9
9
9
9
9
9
9
9
9
9
9
9
9
9
9
9
9
9
9
9
9
9
9
9
9
9
9
9
9
9
9
9
9
9
9
9
9
9
9
9

CELL_DATA 60
SCALARS SOIL_OR_PARENT int 1
LOOKUP_TABLE default
1
1
1
1
1
0
0
0
0
0
0
0
0
0
0
1
1
1
1
1
0
0
0
0
0
0
0
0
0
0
1
1
1
1
1
0
0
0
0
0
0
0
0
0
0
1
1
1
1
1
0
0
0
0
0
0
0
0
0
0
SCALARS CELL_NUM int 1
LOOKUP_TABLE default
0
1
2
3
4
5
6
7
8
9
10
11
12
13
14
15
16
17
18
19
20
21
22
23
24
25
26
27
28
29
30
31
32
33
34
35
36
37
38
39
40
41
42
43
44
45
46
47
48
49
50
51
52
53
54
55
56
57
58
59
SCALARS Mineral_volume_percents_Albite float 1
LOOKUP_TABLE default
134.946
136.58
135.056
132.656
123.871
149.251
161.918
149.055
156.72
147.711
153.48
153.02
153.99
159.293
160.928
123.523
119.514
127.053
126.294
123.202
160.361
160.398
159.391
162.241
163.017
154.534
159.803
158.766
152.248
152.01
136.173
135.672
130.311
135.259
139.171
151.774
147.091
161.416
163.656
147.997
148.672
156.852
140.893
144.457
157.412
130.846
116.795
134.787
124.573
130.663
163.325
157.34
142.89
158.378
161.275
154.553
172.143
155.492
156.748
153.18
SCALARS Mineral_volume_percents_Quartz float 1
LOOKUP_TABLE default
94.5585
101.071
96.6282
100.048
99.4345
109.495
125.77
127.959
140.107
131.487
134.115
121.913
122.397
130.342
115.71
109.509
104.319
105.464
96.649
101.392
119.494
126.106
116.683
128.716
123.726
134.716
122.787
110.698
139.181
126.104
98.1811
103.052
98.084
106.838
100.667
126.398
123.001
125.009
117.342
118.056
122.697
125.683
124.722
129.338
123.256
108.023
105.456
94.9216
113.379
104.912
128.389
124.505
120.529
123.25
117.032
126.824
124.989
131.706
132.105
123.445
SCALARS Mineral_specific_surface_area_m2perg_Albite float 1
LOOKUP_TABLE default
0.090566
0.090566
0.090566
0.090566
0.090566
0.090566
0.090566
0.090566
0.090566
0.090566
0.090566
0.090566
0.090566
0.090566
0.090566
0.090566
0.090566
0.090566
0.090566
0.090566
0.090566
0.090566
0.090566
0.090566
0.090566
0.090566
0.090566
0.090566
0.090566
0.090566
0.090566
0.090566
0.090566
0.090566
0.090566
0.090566
0.090566
0.090566
0.090566
0.090566
0.090566
0.090566
0.090566
0.090566
0.090566
0.090566
0.090566
0.090566
0.090566
0.090566
0.090566
0.090566
0.090566
0.090566
0.090566
0.090566
0.090566
0.090566
0.090566
0.090566
SCALARS Mineral_specific_surface_area_m2perg_Quartz float 1
LOOKUP_TABLE default
0.090566
0.090566
0.090566
0.090566
0.090566
0.090566
0.090566
0.090566
0.090566
0.090566
0.090566
0.090566
0.090566
0.090566
0.090566
0.090566
0.090566
0.090566
0.090566
0.090566
0.090566
0.090566
0.090566
0.090566
0.090566
0.090566
0.090566
0.090566
0.090566
0.090566
0.090566
0.090566
0.090566
0.090566
0.090566
0.090566
0.090566
0.090566
0.090566
0.090566
0.090566
0.090566
0.090566
0.090566
0.090566
0.090566
0.090566
0.090566
0.090566
0.090566
0.090566
0.090566
0.090566
0.090566
0.090566
0.090566
0.090566
0.090566
0.090566
0.090566
SCALARS Mineral_mass_kg_Albite float 1
LOOKUP_TABLE default
35.7727
36.2057
35.8017
35.1655
32.8369
59.3205
64.3552
59.243
62.2894
58.7088
61.0014
60.8187
61.2043
63.312
63.9616
32.7445
31.6818
33.6802
33.4791
32.6595
63.7363
63.7513
63.3507
64.4835
64.7919
61.4203
63.5147
63.1026
60.5119
60.4173
36.098
35.965
34.5438
35.8556
36.8925
60.3235
58.4623
64.1558
65.0461
58.8224
59.0904
62.3417
55.9988
57.4152
62.5643
34.6857
30.9609
35.7304
33.0229
34.6372
64.9146
62.5358
56.7925
62.9484
64.0995
61.4278
68.4191
61.8014
62.3004
60.8823
SCALARS Mineral_mass_kg_Quartz float 1
LOOKUP_TABLE default
25.0664
26.7926
25.615
26.5216
26.3589
43.5196
49.988
50.8582
55.6863
52.2604
53.3048
48.4549
48.6474
51.8052
45.9897
29.0295
27.6538
27.9574
25.6205
26.8778
47.4935
50.1215
46.3763
51.159
49.1756
53.5438
48.8024
43.9975
55.3183
50.1209
26.0267
27.318
26.0009
28.3215
26.6856
50.2375
48.8873
49.6854
46.6382
46.9219
48.7667
49.9533
49.5716
51.4061
48.9888
28.6357
27.9551
25.1626
30.0554
27.8109
51.0291
49.4854
47.9048
48.9865
46.5151
50.407
49.6777
52.3475
52.5061
49.0638
SCALARS Mineral_surface_area_m2_Albite float 1
LOOKUP_TABLE default
3239.79
3279
3242.42
3184.8
2973.91
5372.42
5828.39
5365.4
5641.3
5317.02
5524.66
5508.11
5543.03
5733.92
5792.75
2965.54
2869.3
3050.28
3032.07
2957.84
5772.35
5773.7
5737.43
5840.02
5867.94
5562.59
5752.28
5714.95
5480.32
5471.76
3269.25
3257.21
3128.5
3247.3
3341.21
5463.26
5294.7
5810.33
5890.97
5327.32
5351.58
5646.04
5071.59
5199.87
5666.2
3141.35
2804.01
3235.96
2990.76
3136.96
5879.06
5663.62
5143.48
5700.98
5805.24
5563.27
6196.45
5597.11
5642.3
5513.86
SCALARS Mineral_surface_area_m2_Quartz float 1
LOOKUP_TABLE default
2270.16
2426.5
2319.85
2401.96
2387.22
3941.4
4527.22
4606.02
5043.29
4733.01
4827.6
4388.37
4405.81
4691.79
4165.1
2629.09
2504.5
2531.99
2320.35
2434.21
4301.3
4539.3
4200.12
4633.27
4453.64
4849.25
4419.84
3984.68
5009.96
4539.25
2357.13
2474.08
2354.8
2564.96
2416.81
4549.81
4427.53
4499.81
4223.83
4249.53
4416.6
4524.07
4489.51
4655.65
4436.72
2593.42
2531.79
2278.88
2722
2518.73
4621.5
4481.69
4338.55
4436.52
4212.69
4565.16
4499.11
4740.9
4755.27
4443.51
SCALARS Solute_Concentration_Al+++ float 1
LOOKUP_TABLE default
6.13522e-06
8.5158e-06
1.03771e-05
1.14705e-05
1.16207e-05
1.10378e-05
9.28239e-06
7.55658e-06
6.36187e-06
4.69461e-06
3.68021e-06
3.22612e-06
2.59559e-06
2.25382e-06
1.72905e-06
6.13522e-06
8.5158e-06
1.03771e-05
1.14705e-05
1.16207e-05
1.10378e-05
9.28239e-06
7.55658e-06
6.36187e-06
4.69461e-06
3.68021e-06
3.22612e-06
2.59559e-06
2.25382e-06
1.72905e-06
6.13522e-06
8.5158e-06
1.03771e-05
1.14705e-05
1.16207e-05
1.10378e-05
9.28239e-06
7.55658e-06
6.36187e-06
4.69461e-06
3.68021e-06
3.22612e-06
2.59559e-06
2.25382e-06
1.72905e-06
6.13522e-06
8.5158e-06
1.03771e-05
1.14705e-05
1.16207e-05
1.10378e-05
9.28239e-06
7.55658e-06
6.36187e-06
4.69461e-06
3.68021e-06
3.22612e-06
2.59559e-06
2.25382e-06
1.72905e-06
SCALARS Solute_Concentration_CO2(aq) float 1
LOOKUP_TABLE default
0.00964234
0.0094933
0.00936644
0.00927138
0.00921234
0.00914699
0.00910561
0.00905555
0.0089879
0.00894332
0.00886696
0.00877443
0.00868895
0.00859295
0.00851923
0.00964234
0.0094933
0.00936644
0.00927138
0.00921234
0.00914699
0.00910561
0.00905555
0.0089879
0.00894332
0.00886696
0.00877443
0.00868895
0.00859295
0.00851923
0.00964234
0.0094933
0.00936644
0.00927138
0.00921234
0.00914699
0.00910561
0.00905555
0.0089879
0.00894332
0.00886696
0.00877443
0.00868895
0.00859295
0.00851923
0.00964234
0.0094933
0.00936644
0.00927138
0.00921234
0.00914699
0.00910561
0.00905555
0.0089879
0.00894332
0.00886696
0.00877443
0.00868895
0.00859295
0.00851923
SCALARS Solute_Concentration_Ca++ float 1
LOOKUP_TABLE default
9.0701e-05
9.07016e-05
9.07021e-05
9.07027e-05
9.07031e-05
9.07039e-05
9.07048e-05
9.07057e-05
9.07067e-05
9.07077e-05
9.07086e-05
9.07095e-05
9.07104e-05
9.07113e-05
9.07122e-05
9.0701e-05
9.07016e-05
9.07021e-05
9.07027e-05
9.07031e-05
9.07039e-05
9.07048e-05
9.07057e-05
9.07067e-05
9.07077e-05
9.07086e-05
9.07095e-05
9.07104e-05
9.07113e-05
9.07122e-05
9.0701e-05
9.07016e-05
9.07021e-05
9.07027e-05
9.07031e-05
9.07039e-05
9.07048e-05
9.07057e-05
9.07067e-05
9.07077e-05
9.07086e-05
9.07095e-05
9.07104e-05
9.07113e-05
9.07122e-05
9.0701e-05
9.07016e-05
9.07021e-05
9.07027e-05
9.07031e-05
9.07039e-05
9.07048e-05
9.07057e-05
9.07067e-05
9.07077e-05
9.07086e-05
9.07095e-05
9.07104e-05
9.07113e-05
9.07122e-05
SCALARS Solute_Concentration_Cl- float 1
LOOKUP_TABLE default
0.000465
0.000465
0.000465
0.000465
0.000465
0.000465
0.000465
0.000465
0.000465
0.000465
0.000465
0.000465
0.000465
0.000465
0.000465
0.000465
0.000465
0.000465
0.000465
0.000465
0.000465
0.000465
0.000465
0.000465
0.000465
0.000465
0.000465
0.000465
0.000465
0.000465
0.000465
0.000465
0.000465
0.000465
0.000465
0.000465
0.000465
0.000465
0.000465
0.000465
0.000465
0.000465
0.000465
0.000465
0.000465
0.000465
0.000465
0.000465
0.000465
0.000465
0.000465
0.000465
0.000465
0.000465
0.000465
0.000465
0.000465
0.000465
0.000465
0.000465
SCALARS Solute_Concentration_Fe++ float 1
LOOKUP_TABLE default
2.0998e-08
3.17274e-08
4.30936e-08
5.31417e-08
6.28811e-08
7.76673e-08
9.6105e-08
1.13267e-07
1.34249e-07
1.53977e-07
1.72772e-07
1.90613e-07
2.0914e-07
2.26572e-07
2.43091e-07
2.0998e-08
3.17274e-08
4.30936e-08
5.31417e-08
6.28811e-08
7.76673e-08
9.6105e-08
1.13267e-07
1.34249e-07
1.53977e-07
1.72772e-07
1.90613e-07
2.0914e-07
2.26572e-07
2.43091e-07
2.0998e-08
3.17274e-08
4.30936e-08
5.31417e-08
6.28811e-08
7.76673e-08
9.6105e-08
1.13267e-07
1.34249e-07
1.53977e-07
1.72772e-07
1.90613e-07
2.0914e-07
2.26572e-07
2.43091e-07
2.0998e-08
3.17274e-08
4.30936e-08
5.31417e-08
6.28811e-08
7.76673e-08
9.6105e-08
1.13267e-07
1.34249e-07
1.53977e-07
1.72772e-07
1.90613e-07
2.0914e-07
2.26572e-07
2.43091e-07
SCALARS Solute_Concentration_Fe+++ float 1
LOOKUP_TABLE default
8.35922e-09
1.2651e-08
1.71974e-08
2.12167e-08
2.51124e-08
3.10269e-08
3.8402e-08
4.52668e-08
5.36594e-08
6.15509e-08
6.90689e-08
7.62052e-08
8.36161e-08
9.05887e-08
9.71965e-08
8.35922e-09
1.2651e-08
1.71974e-08
2.12167e-08
2.51124e-08
3.10269e-08
3.8402e-08
4.52668e-08
5.36594e-08
6.15509e-08
6.90689e-08
7.62052e-08
8.36161e-08
9.05887e-08
9.71965e-08
8.35922e-09
1.2651e-08
1.71974e-08
2.12167e-08
2.51124e-08
3.10269e-08
3.8402e-08
4.52668e-08
5.36594e-08
6.15509e-08
6.90689e-08
7.62052e-08
8.36161e-08
9.05887e-08
9.71965e-08
8.35922e-09
1.2651e-08
1.71974e-08
2.12167e-08
2.51124e-08
3.10269e-08
3.8402e-08
4.52668e-08
5.36594e-08
6.15509e-08
6.90689e-08
7.62052e-08
8.36161e-08
9.05887e-08
9.71965e-08
SCALARS Solute_Concentration_H+ float 1
LOOKUP_TABLE default
-4.2519e-05
-5.2825e-05
-6.1633e-05
-6.80701e-05
-7.1606e-05
-7.47814e-05
-7.53747e-05
-7.63832e-05
-7.87919e-05
-7.93639e-05
-8.22268e-05
-8.6483e-05
-9.01021e-05
-9.45525e-05
-9.75938e-05
-4.2519e-05
-5.2825e-05
-6.1633e-05
-6.80701e-05
-7.1606e-05
-7.47814e-05
-7.53747e-05
-7.63832e-05
-7.87919e-05
-7.93639e-05
-8.22268e-05
-8.6483e-05
-9.01021e-05
-9.45525e-05
-9.75938e-05
-4.2519e-05
-5.2825e-05
-6.1633e-05
-6.80701e-05
-7.1606e-05
-7.47814e-05
-7.53747e-05
-7.63832e-05
-7.87919e-05
-7.93639e-05
-8.22268e-05
-8.6483e-05
-9.01021e-05
-9.45525e-05
-9.75938e-05
-4.2519e-05
-5.2825e-05
-6.1633e-05
-6.80701e-05
-7.1606e-05
-7.47814e-05
-7.53747e-05
-7.63832e-05
-7.87919e-05
-7.93639e-05
-8.22268e-05
-8.6483e-05
-9.01021e-05
-9.45525e-05
-9.75938e-05
SCALARS Solute_Concentration_K+ float 1
LOOKUP_TABLE default
1.89683e-05
2.0249e-05
2.15253e-05
2.27914e-05
2.41017e-05
2.62209e-05
2.84953e-05
3.09354e-05
3.33257e-05
3.55583e-05
3.78959e-05
4.00428e-05
4.20981e-05
4.40162e-05
4.58067e-05
1.89683e-05
2.0249e-05
2.15253e-05
2.27914e-05
2.41017e-05
2.62209e-05
2.84953e-05
3.09354e-05
3.33257e-05
3.55583e-05
3.78959e-05
4.00428e-05
4.20981e-05
4.40162e-05
4.58067e-05
1.89683e-05
2.0249e-05
2.15253e-05
2.27914e-05
2.41017e-05
2.62209e-05
2.84953e-05
3.09354e-05
3.33257e-05
3.55583e-05
3.78959e-05
4.00428e-05
4.20981e-05
4.40162e-05
4.58067e-05
1.89683e-05
2.0249e-05
2.15253e-05
2.27914e-05
2.41017e-05
2.62209e-05
2.84953e-05
3.09354e-05
3.33257e-05
3.55583e-05
3.78959e-05
4.00428e-05
4.20981e-05
4.40162e-05
4.58067e-05
SCALARS Solute_Concentration_Mg++ float 1
LOOKUP_TABLE default
6.88481e-05
6.88727e-05
6.88989e-05
6.8922e-05
6.89444e-05
6.89784e-05
6.90208e-05
6.90603e-05
6.91085e-05
6.91539e-05
6.91972e-05
6.92382e-05
6.92808e-05
6.93209e-05
6.93589e-05
6.88481e-05
6.88727e-05
6.88989e-05
6.8922e-05
6.89444e-05
6.89784e-05
6.90208e-05
6.90603e-05
6.91085e-05
6.91539e-05
6.91972e-05
6.92382e-05
6.92808e-05
6.93209e-05
6.93589e-05
6.88481e-05
6.88727e-05
6.88989e-05
6.8922e-05
6.89444e-05
6.89784e-05
6.90208e-05
6.90603e-05
6.91085e-05
6.91539e-05
6.91972e-05
6.92382e-05
6.92808e-05
6.93209e-05
6.93589e-05
6.88481e-05
6.88727e-05
6.88989e-05
6.8922e-05
6.89444e-05
6.89784e-05
6.90208e-05
6.90603e-05
6.91085e-05
6.91539e-05
6.91972e-05
6.92382e-05
6.92808e-05
6.93209e-05
6.93589e-05
SCALARS Solute_Concentration_NO3- float 1
LOOKUP_TABLE default
0.0001
0.0001
0.0001
0.0001
0.0001
0.0001
0.0001
0.0001
0.0001
0.0001
0.0001
0.0001
0.0001
0.0001
0.0001
0.0001
0.0001
0.0001
0.0001
0.0001
0.0001
0.0001
0.0001
0.0001
0.0001
0.0001
0.0001
0.0001
0.0001
0.0001
0.0001
0.0001
0.0001
0.0001
0.0001
0.0001
0.0001
0.0001
0.0001
0.0001
0.0001
0.0001
0.0001
0.0001
0.0001
0.0001
0.0001
0.0001
0.0001
0.0001
0.0001
0.0001
0.0001
0.0001
0.0001
0.0001
0.0001
0.0001
0.0001
0.0001
SCALARS Solute_Concentration_Na+ float 1
LOOKUP_TABLE default
0.000428932
0.00043073
0.000432588
0.0004344
0.000436098
0.000438786
0.000442225
0.000445836
0.000449272
0.000452458
0.000455878
0.000459208
0.000462517
0.000465937
0.000468632
0.000428932
0.00043073
0.000432588
0.0004344
0.000436098
0.000438786
0.000442225
0.000445836
0.000449272
0.000452458
0.000455878
0.000459208
0.000462517
0.000465937
0.000468632
0.000428932
0.00043073
0.000432588
0.0004344
0.000436098
0.000438786
0.000442225
0.000445836
0.000449272
0.000452458
0.000455878
0.000459208
0.000462517
0.000465937
0.000468632
0.000428932
0.00043073
0.000432588
0.0004344
0.000436098
0.000438786
0.000442225
0.000445836
0.000449272
0.000452458
0.000455878
0.000459208
0.000462517
0.000465937
0.000468632
SCALARS Solute_Concentration_SO4-- float 1
LOOKUP_TABLE default
0.000161
0.000161
0.000161
0.000161
0.000161
0.000161
0.000161
0.000161
0.000161
0.000161
0.000161
0.000161
0.000161
0.000161
0.000161
0.000161
0.000161
0.000161
0.000161
0.000161
0.000161
0.000161
0.000161
0.000161
0.000161
0.000161
0.000161
0.000161
0.000161
0.000161
0.000161
0.000161
0.000161
0.000161
0.000161
0.000161
0.000161
0.000161
0.000161
0.000161
0.000161
0.000161
0.000161
0.000161
0.000161
0.000161
0.000161
0.000161
0.000161
0.000161
0.000161
0.000161
0.000161
0.000161
0.000161
0.000161
0.000161
0.000161
0.000161
0.000161
SCALARS Solute_Concentration_SiO2(aq) float 1
LOOKUP_TABLE default
2.03017e-05
2.88766e-05
3.70441e-05
4.43254e-05
5.05245e-05
5.96054e-05
6.93382e-05
7.97699e-05
9.02986e-05
9.95322e-05
0.000110095
0.000120655
0.000130814
0.000141206
0.000149706
2.03017e-05
2.88766e-05
3.70441e-05
4.43254e-05
5.05245e-05
5.96054e-05
6.93382e-05
7.97699e-05
9.02986e-05
9.95322e-05
0.000110095
0.000120655
0.000130814
0.000141206
0.000149706
2.03017e-05
2.88766e-05
3.70441e-05
4.43254e-05
5.05245e-05
5.96054e-05
6.93382e-05
7.97699e-05
9.02986e-05
9.95322e-05
0.000110095
0.000120655
0.000130814
0.000141206
0.000149706
2.03017e-05
2.88766e-05
3.70441e-05
4.43254e-05
5.05245e-05
5.96054e-05
6.93382e-05
7.97699e-05
9.02986e-05
9.95322e-05
0.000110095
0.000120655
0.000130814
0.000141206
0.000149706
SCALARS Solute_Concentration_Sr++ float 1
LOOKUP_TABLE default
5.07e-07
5.07e-07
5.07e-07
5.07e-07
5.07e-07
5.07e-07
5.07e-07
5.07e-07
5.07e-07
5.07e-07
5.07e-07
5.07e-07
5.07e-07
5.07e-07
5.07e-07
5.07e-07
5.07e-07
5.07e-07
5.07e-07
5.07e-07
5.07e-07
5.07e-07
5.07e-07
5.07e-07
5.07e-07
5.07e-07
5.07e-07
5.07e-07
5.07e-07
5.07e-07
5.07e-07
5.07e-07
5.07e-07
5.07e-07
5.07e-07
5.07e-07
5.07e-07
5.07e-07
5.07e-07
5.07e-07
5.07e-07
5.07e-07
5.07e-07
5.07e-07
5.07e-07
5.07e-07
5.07e-07
5.07e-07
5.07e-07
5.07e-07
5.07e-07
5.07e-07
5.07e-07
5.07e-07
5.07e-07
5.07e-07
5.07e-07
5.07e-07
5.07e-07
5.07e-07
SCALARS Reaction_rates_Moles_per_L_porusmedium_per_second_Albite float 1
LOOKUP_TABLE default
1.24993e-16
1.26242e-15
7.24827e-15
1.47226e-14
3.55173e-14
5.64539e-14
7.16344e-14
7.35283e-14
6.41013e-14
6.95899e-14
6.43266e-14
5.45646e-14
6.00298e-14
5.77319e-14
6.03845e-14
1.24993e-16
1.26242e-15
7.24827e-15
1.47226e-14
3.55173e-14
5.64539e-14
7.16344e-14
7.35283e-14
6.41013e-14
6.95899e-14
6.43266e-14
5.45646e-14
6.00298e-14
5.77319e-14
6.03845e-14
1.24993e-16
1.26242e-15
7.24827e-15
1.47226e-14
3.55173e-14
5.64539e-14
7.16344e-14
7.35283e-14
6.41013e-14
6.95899e-14
6.43266e-14
5.45646e-14
6.00298e-14
5.77319e-14
6.03845e-14
1.24993e-16
1.26242e-15
7.24827e-15
1.47226e-14
3.55173e-14
5.64539e-14
7.16344e-14
7.35283e-14
6.41013e-14
6.95899e-14
6.43266e-14
5.45646e-14
6.00298e-14
5.77319e-14
6.03845e-14
SCALARS Reaction_rates_Moles_per_L_porusmedium_per_second_Quartz float 1
LOOKUP_TABLE default
-3.74274e-14
-3.59755e-14
-3.58475e-14
-3.3978e-14
-3.84667e-14
-4.86591e-14
-4.28169e-14
-4.46085e-14
-4.45025e-14
-4.21593e-14
-4.33433e-14
-3.99805e-14
-4.09584e-14
-3.8104e-14
-4.27348e-14
-3.74274e-14
-3.59755e-14
-3.58475e-14
-3.3978e-14
-3.84667e-14
-4.86591e-14
-4.28169e-14
-4.46085e-14
-4.45025e-14
-4.21593e-14
-4.33433e-14
-3.99805e-14
-4.09584e-14
-3.8104e-14
-4.27348e-14
-3.74274e-14
-3.59755e-14
-3.58475e-14
-3.3978e-14
-3.84667e-14
-4.86591e-14
-4.28169e-14
-4.46085e-14
-4.45025e-14
-4.21593e-14
-4.33433e-14
-3.99805e-14
-4.09584e-14
-3.8104e-14
-4.27348e-14
-3.74274e-14
-3.59755e-14
-3.58475e-14
-3.3978e-14
-3.84667e-14
-4.86591e-14
-4.28169e-14
-4.46085e-14
-4.45025e-14
-4.21593e-14
-4.33433e-14
-3.99805e-14
-4.09584e-14
-3.8104e-14
-4.27348e-14
SCALARS Mineral_mass_fraction_Albite float 1
LOOKUP_TABLE default
0.561179
0.553203
0.555747
0.548905
0.540031
0.557983
0.548402
0.533951
0.528331
0.527424
0.530888
0.545097
0.545198
0.541194
0.561535
0.500576
0.500588
0.50072
0.546415
0.5372
0.557226
0.547106
0.558335
0.547093
0.552238
0.531634
0.551319
0.564933
0.524583
0.540734
0.556544
0.548736
0.548266
0.542579
0.55541
0.54013
0.537183
0.54991
0.561693
0.543821
0.53953
0.544686
0.52924
0.527642
0.549268
0.500794
0.500492
0.558253
0.522926
0.541314
0.549802
0.546344
0.537163
0.550177
0.559109
0.541142
0.560876
0.536543
0.537412
0.545467
SCALARS Mineral_mass_fraction_Quartz float 1
LOOKUP_TABLE default
0.438821
0.446797
0.444253
0.451095
0.459969
0.442017
0.451598
0.466049
0.471669
0.472576
0.469112
0.454903
0.454802
0.458806
0.438465
0.499424
0.499412
0.49928
0.453585
0.4628
0.442774
0.452894
0.441665
0.452907
0.447762
0.468366
0.448681
0.435067
0.475417
0.459266
0.443456
0.451264
0.451734
0.457421
0.44459
0.45987
0.462817
0.45009
0.438307
0.456179
0.46047
0.455314
0.47076
0.472358
0.450732
0.499206
0.499508
0.441747
0.477074
0.458686
0.450198
0.453656
0.462837
0.449823
0.440891
0.458858
0.439124
0.463457
0.462588
0.454533
SCALARS Mineral_depletion_ratio_Albite float 1
LOOKUP_TABLE default
5.41832
5.37254
5.43754
5.49747
5.74263
5.20983
4.97442
5.13223
5.12903
5.06369
5.02473
5.15821
5.08628
5.07718
4.89382
309.113
319.417
300.325
5.61968
5.64901
5.00049
4.92649
4.93786
4.99449
4.81892
4.94662
5.00514
4.9613
5.09883
4.94277
5.49845
5.50386
5.58142
5.4957
5.38506
5.14184
5.12642
4.94884
5.00814
5.02766
5.05068
5.0779
5.2307
5.2431
4.91016
292.529
327.538
5.37892
5.61147
5.44667
4.92409
4.91905
5.10525
4.99606
4.79805
4.90553
4.83078
4.95824
4.99913
4.88423
SCALARS Mineral_depletion_ratio_Quartz float 1
LOOKUP_TABLE default
4.70046
4.5263
4.71645
4.63549
4.68921
4.10595
4.16054
4.06525
4.01382
4.08954
4.03259
4.16331
4.14012
4.12141
3.95334
281.06
294.81
291.546
4.79291
4.62455
3.9673
4.0932
4.07224
4.02165
4.06647
3.96834
4.08418
4.15041
4.01124
3.84019
4.74475
4.62881
4.76263
4.55107
4.65911
3.96501
4.14696
4.05372
4.13021
4.14494
4.06871
4.10388
4.09308
4.09607
3.89334
285.826
292.997
4.80571
4.37308
4.51194
3.87935
4.05876
4.00608
4.00795
4.07115
3.96996
4.03346
3.97306
4.0044
3.80843
