# vtk DataFile Version 2.0
Unstructured Grid Ptrack_cells
ASCII

DATASET UNSTRUCTURED_GRID
POINTS 80 float
0 99.9981 0.0
0 99.8979 0.0
0 99.7978 0.0
0 99.6977 0.0
0 99.5976 0.0
0 99.4975 0.0
0 99.3476 0.0
0 99.1976 0.0
0 99.0477 0.0
0 98.8977 0.0
0 98.7478 0.0
0 98.5978 0.0
0 98.4479 0.0
0 98.2979 0.0
0 98.148 0.0
0 97.9981 0.0
0.1 99.9981 0.0
0.1 99.8979 0.0
0.1 99.7978 0.0
0.1 99.6977 0.0
0.1 99.5976 0.0
0.1 99.4975 0.0
0.1 99.3476 0.0
0.1 99.1976 0.0
0.1 99.0477 0.0
0.1 98.8977 0.0
0.1 98.7478 0.0
0.1 98.5978 0.0
0.1 98.4479 0.0
0.1 98.2979 0.0
0.1 98.148 0.0
0.1 97.9981 0.0
0.2 99.9981 0.0
0.2 99.8979 0.0
0.2 99.7978 0.0
0.2 99.6977 0.0
0.2 99.5976 0.0
0.2 99.4975 0.0
0.2 99.3476 0.0
0.2 99.1976 0.0
0.2 99.0477 0.0
0.2 98.8977 0.0
0.2 98.7478 0.0
0.2 98.5978 0.0
0.2 98.4479 0.0
0.2 98.2979 0.0
0.2 98.148 0.0
0.2 97.9981 0.0
0.3 99.9981 0.0
0.3 99.8979 0.0
0.3 99.7978 0.0
0.3 99.6977 0.0
0.3 99.5976 0.0
0.3 99.4975 0.0
0.3 99.3476 0.0
0.3 99.1976 0.0
0.3 99.0477 0.0
0.3 98.8977 0.0
0.3 98.7478 0.0
0.3 98.5978 0.0
0.3 98.4479 0.0
0.3 98.2979 0.0
0.3 98.148 0.0
0.3 97.9981 0.0
0.4 99.9981 0.0
0.4 99.8979 0.0
0.4 99.7978 0.0
0.4 99.6977 0.0
0.4 99.5976 0.0
0.4 99.4975 0.0
0.4 99.3476 0.0
0.4 99.1976 0.0
0.4 99.0477 0.0
0.4 98.8977 0.0
0.4 98.7478 0.0
0.4 98.5978 0.0
0.4 98.4479 0.0
0.4 98.2979 0.0
0.4 98.148 0.0
0.4 97.9981 0.0

CELLS 60 300
4 0 16 17 1
4 1 17 18 2
4 2 18 19 3
4 3 19 20 4
4 4 20 21 5
4 5 21 22 6
4 6 22 23 7
4 7 23 24 8
4 8 24 25 9
4 9 25 26 10
4 10 26 27 11
4 11 27 28 12
4 12 28 29 13
4 13 29 30 14
4 14 30 31 15
4 16 32 33 17
4 17 33 34 18
4 18 34 35 19
4 19 35 36 20
4 20 36 37 21
4 21 37 38 22
4 22 38 39 23
4 23 39 40 24
4 24 40 41 25
4 25 41 42 26
4 26 42 43 27
4 27 43 44 28
4 28 44 45 29
4 29 45 46 30
4 30 46 47 31
4 32 48 49 33
4 33 49 50 34
4 34 50 51 35
4 35 51 52 36
4 36 52 53 37
4 37 53 54 38
4 38 54 55 39
4 39 55 56 40
4 40 56 57 41
4 41 57 58 42
4 42 58 59 43
4 43 59 60 44
4 44 60 61 45
4 45 61 62 46
4 46 62 63 47
4 48 64 65 49
4 49 65 66 50
4 50 66 67 51
4 51 67 68 52
4 52 68 69 53
4 53 69 70 54
4 54 70 71 55
4 55 71 72 56
4 56 72 73 57
4 57 73 74 58
4 58 74 75 59
4 59 75 76 60
4 60 76 77 61
4 61 77 78 62
4 62 78 79 63

CELL_TYPES 60
9
9
9
9
9
9
9
9
9
9
9
9
9
9
9
9
9
9
9
9
9
9
9
9
9
9
9
9
9
9
9
9
9
9
9
9
9
9
9
9
9
9
9
9
9
9
9
9
9
9
9
9
9
9
9
9
9
9
9
9

CELL_DATA 60
SCALARS SOIL_OR_PARENT int 1
LOOKUP_TABLE default
1
1
1
1
1
0
0
0
0
0
0
0
0
0
0
1
1
1
1
1
0
0
0
0
0
0
0
0
0
0
1
1
1
1
1
0
0
0
0
0
0
0
0
0
0
1
1
1
1
1
0
0
0
0
0
0
0
0
0
0
SCALARS CELL_NUM int 1
LOOKUP_TABLE default
0
1
2
3
4
5
6
7
8
9
10
11
12
13
14
15
16
17
18
19
20
21
22
23
24
25
26
27
28
29
30
31
32
33
34
35
36
37
38
39
40
41
42
43
44
45
46
47
48
49
50
51
52
53
54
55
56
57
58
59
SCALARS Mineral_volume_percents_Albite float 1
LOOKUP_TABLE default
64668.4
62420.3
58408.2
57898
57716.5
60116.7
60133.4
60410.6
60248
60444.2
59933.3
60469.1
59822.2
60457.8
59934.9
60184.1
71804.5
68238.6
61308.9
59015.4
60369.1
60214.6
60206
60048.4
60275.8
60333.4
60560.7
59826.7
60544.4
59806.4
62978.7
54507.8
61762.9
59679.5
61698.2
60424.7
60175.9
60596.4
60225
59772.6
60328.3
60332.7
60081.6
60308.1
59968.9
68963.6
70109.6
65923.6
70496.7
65479.6
59994.7
60333.5
60112.6
60362.4
60389.6
60082.5
60352.6
59967.6
60294.2
60031.3
SCALARS Mineral_volume_percents_Quartz float 1
LOOKUP_TABLE default
60010.7
53877.3
63849.6
62585.7
60423.1
60005.9
60253.3
60020.3
60272.7
59974.6
60289.4
60166.9
60099.6
60019.5
59854.1
61976.4
67944.1
56992.7
56502.9
77117.7
59986.8
60493.1
59854.1
60024.8
60361.1
60106.9
59908.9
60716.3
59495.1
60088.1
57059.4
61572.5
61402.1
64301.7
56055.7
60230.5
60029.7
60441.1
59941.6
59936.5
60275.5
60266.8
59831.4
60323
59730.6
60821.8
72252.7
67140.8
68684.8
71251.5
59761.5
60081.8
60379.9
60201.6
60124.8
59941
60092.2
60214.4
60353.7
59709
SCALARS Mineral_specific_surface_area_m2perg_Albite float 1
LOOKUP_TABLE default
0.090566
0.090566
0.090566
0.090566
0.090566
0.090566
0.090566
0.090566
0.090566
0.090566
0.090566
0.090566
0.090566
0.090566
0.090566
0.090566
0.090566
0.090566
0.090566
0.090566
0.090566
0.090566
0.090566
0.090566
0.090566
0.090566
0.090566
0.090566
0.090566
0.090566
0.090566
0.090566
0.090566
0.090566
0.090566
0.090566
0.090566
0.090566
0.090566
0.090566
0.090566
0.090566
0.090566
0.090566
0.090566
0.090566
0.090566
0.090566
0.090566
0.090566
0.090566
0.090566
0.090566
0.090566
0.090566
0.090566
0.090566
0.090566
0.090566
0.090566
SCALARS Mineral_specific_surface_area_m2perg_Quartz float 1
LOOKUP_TABLE default
0.090566
0.090566
0.090566
0.090566
0.090566
0.090566
0.090566
0.090566
0.090566
0.090566
0.090566
0.090566
0.090566
0.090566
0.090566
0.090566
0.090566
0.090566
0.090566
0.090566
0.090566
0.090566
0.090566
0.090566
0.090566
0.090566
0.090566
0.090566
0.090566
0.090566
0.090566
0.090566
0.090566
0.090566
0.090566
0.090566
0.090566
0.090566
0.090566
0.090566
0.090566
0.090566
0.090566
0.090566
0.090566
0.090566
0.090566
0.090566
0.090566
0.090566
0.090566
0.090566
0.090566
0.090566
0.090566
0.090566
0.090566
0.090566
0.090566
0.090566
SCALARS Mineral_mass_kg_Albite float 1
LOOKUP_TABLE default
17156.2
16559.8
15495.4
15360
15311.9
23887.5
23894.2
24004.3
23939.7
24017.7
23814.7
24027.6
23770.5
24023.1
23815.3
15966.5
19049.3
18103.3
16264.9
15656.5
23987.8
23926.4
23923
23860.4
23950.8
23973.7
24064
23772.3
24057.5
23764.2
16707.9
14460.6
16385.4
15832.6
16368.2
24009.9
23911
24078.2
23930.6
23750.8
23971.6
23973.4
23873.6
23963.6
23828.8
18295.7
18599.7
17489.2
18702.4
17371.4
23839
23973.7
23885.9
23985.2
23996
23874
23981.3
23828.3
23958.1
23853.6
SCALARS Mineral_mass_kg_Quartz float 1
LOOKUP_TABLE default
15920.5
14293.3
16939
16603.6
16029.9
23843.5
23941.8
23849.3
23949.5
23831.1
23956.1
23907.5
23880.7
23848.9
23783.2
16442
18025.2
15119.8
14989.9
20458.9
23835.9
24037.1
23783.2
23851
23984.7
23883.7
23805
24125.8
23640.5
23876.2
15137.5
16334.8
16289.6
17058.9
14871.3
23932.8
23853
24016.4
23818
23815.9
23950.6
23947.2
23774.2
23969.5
23734.1
16135.7
19168.2
17812.1
18221.7
18902.6
23746.4
23873.7
23992.1
23921.3
23890.8
23817.7
23877.8
23926.4
23981.7
23725.6
SCALARS Mineral_surface_area_m2_Albite float 1
LOOKUP_TABLE default
1.55377e+06
1.49975e+06
1.40335e+06
1.3911e+06
1.38674e+06
2.1634e+06
2.164e+06
2.17397e+06
2.16812e+06
2.17518e+06
2.1568e+06
2.17608e+06
2.1528e+06
2.17567e+06
2.15686e+06
1.44602e+06
1.72522e+06
1.63955e+06
1.47305e+06
1.41794e+06
2.17248e+06
2.16692e+06
2.16661e+06
2.16094e+06
2.16913e+06
2.1712e+06
2.17938e+06
2.15296e+06
2.17879e+06
2.15223e+06
1.51317e+06
1.30964e+06
1.48396e+06
1.4339e+06
1.4824e+06
2.17448e+06
2.16553e+06
2.18066e+06
2.1673e+06
2.15102e+06
2.17102e+06
2.17117e+06
2.16214e+06
2.17029e+06
2.15808e+06
1.65697e+06
1.6845e+06
1.58392e+06
1.6938e+06
1.57326e+06
2.15901e+06
2.1712e+06
2.16325e+06
2.17224e+06
2.17322e+06
2.16217e+06
2.17189e+06
2.15803e+06
2.16979e+06
2.16033e+06
SCALARS Mineral_surface_area_m2_Quartz float 1
LOOKUP_TABLE default
1.44186e+06
1.29449e+06
1.53409e+06
1.50372e+06
1.45177e+06
2.15941e+06
2.16831e+06
2.15993e+06
2.16901e+06
2.15828e+06
2.16961e+06
2.1652e+06
2.16278e+06
2.1599e+06
2.15395e+06
1.48909e+06
1.63247e+06
1.36934e+06
1.35758e+06
1.85288e+06
2.15872e+06
2.17695e+06
2.15395e+06
2.16009e+06
2.1722e+06
2.16305e+06
2.15592e+06
2.18498e+06
2.14103e+06
2.16237e+06
1.37095e+06
1.47938e+06
1.47529e+06
1.54496e+06
1.34683e+06
2.1675e+06
2.16027e+06
2.17507e+06
2.1571e+06
2.15691e+06
2.16911e+06
2.1688e+06
2.15313e+06
2.17082e+06
2.14951e+06
1.46135e+06
1.73599e+06
1.61317e+06
1.65027e+06
1.71194e+06
2.15062e+06
2.16214e+06
2.17287e+06
2.16646e+06
2.16369e+06
2.15708e+06
2.16252e+06
2.16692e+06
2.17193e+06
2.14873e+06
SCALARS Solute_Concentration_Al+++ float 1
LOOKUP_TABLE default
6.13522e-06
8.5158e-06
1.03771e-05
1.14705e-05
1.16207e-05
1.10378e-05
9.28239e-06
7.55658e-06
6.36187e-06
4.69461e-06
3.68021e-06
3.22612e-06
2.59559e-06
2.25382e-06
1.72905e-06
6.13522e-06
8.5158e-06
1.03771e-05
1.14705e-05
1.16207e-05
1.10378e-05
9.28239e-06
7.55658e-06
6.36187e-06
4.69461e-06
3.68021e-06
3.22612e-06
2.59559e-06
2.25382e-06
1.72905e-06
6.13522e-06
8.5158e-06
1.03771e-05
1.14705e-05
1.16207e-05
1.10378e-05
9.28239e-06
7.55658e-06
6.36187e-06
4.69461e-06
3.68021e-06
3.22612e-06
2.59559e-06
2.25382e-06
1.72905e-06
6.13522e-06
8.5158e-06
1.03771e-05
1.14705e-05
1.16207e-05
1.10378e-05
9.28239e-06
7.55658e-06
6.36187e-06
4.69461e-06
3.68021e-06
3.22612e-06
2.59559e-06
2.25382e-06
1.72905e-06
SCALARS Solute_Concentration_CO2(aq) float 1
LOOKUP_TABLE default
0.00964234
0.0094933
0.00936644
0.00927138
0.00921234
0.00914699
0.00910561
0.00905555
0.0089879
0.00894332
0.00886696
0.00877443
0.00868895
0.00859295
0.00851923
0.00964234
0.0094933
0.00936644
0.00927138
0.00921234
0.00914699
0.00910561
0.00905555
0.0089879
0.00894332
0.00886696
0.00877443
0.00868895
0.00859295
0.00851923
0.00964234
0.0094933
0.00936644
0.00927138
0.00921234
0.00914699
0.00910561
0.00905555
0.0089879
0.00894332
0.00886696
0.00877443
0.00868895
0.00859295
0.00851923
0.00964234
0.0094933
0.00936644
0.00927138
0.00921234
0.00914699
0.00910561
0.00905555
0.0089879
0.00894332
0.00886696
0.00877443
0.00868895
0.00859295
0.00851923
SCALARS Solute_Concentration_Ca++ float 1
LOOKUP_TABLE default
9.0701e-05
9.07016e-05
9.07021e-05
9.07027e-05
9.07031e-05
9.07039e-05
9.07048e-05
9.07057e-05
9.07067e-05
9.07077e-05
9.07086e-05
9.07095e-05
9.07104e-05
9.07113e-05
9.07122e-05
9.0701e-05
9.07016e-05
9.07021e-05
9.07027e-05
9.07031e-05
9.07039e-05
9.07048e-05
9.07057e-05
9.07067e-05
9.07077e-05
9.07086e-05
9.07095e-05
9.07104e-05
9.07113e-05
9.07122e-05
9.0701e-05
9.07016e-05
9.07021e-05
9.07027e-05
9.07031e-05
9.07039e-05
9.07048e-05
9.07057e-05
9.07067e-05
9.07077e-05
9.07086e-05
9.07095e-05
9.07104e-05
9.07113e-05
9.07122e-05
9.0701e-05
9.07016e-05
9.07021e-05
9.07027e-05
9.07031e-05
9.07039e-05
9.07048e-05
9.07057e-05
9.07067e-05
9.07077e-05
9.07086e-05
9.07095e-05
9.07104e-05
9.07113e-05
9.07122e-05
SCALARS Solute_Concentration_Cl- float 1
LOOKUP_TABLE default
0.000465
0.000465
0.000465
0.000465
0.000465
0.000465
0.000465
0.000465
0.000465
0.000465
0.000465
0.000465
0.000465
0.000465
0.000465
0.000465
0.000465
0.000465
0.000465
0.000465
0.000465
0.000465
0.000465
0.000465
0.000465
0.000465
0.000465
0.000465
0.000465
0.000465
0.000465
0.000465
0.000465
0.000465
0.000465
0.000465
0.000465
0.000465
0.000465
0.000465
0.000465
0.000465
0.000465
0.000465
0.000465
0.000465
0.000465
0.000465
0.000465
0.000465
0.000465
0.000465
0.000465
0.000465
0.000465
0.000465
0.000465
0.000465
0.000465
0.000465
SCALARS Solute_Concentration_Fe++ float 1
LOOKUP_TABLE default
2.0998e-08
3.17274e-08
4.30936e-08
5.31417e-08
6.28811e-08
7.76673e-08
9.6105e-08
1.13267e-07
1.34249e-07
1.53977e-07
1.72772e-07
1.90613e-07
2.0914e-07
2.26572e-07
2.43091e-07
2.0998e-08
3.17274e-08
4.30936e-08
5.31417e-08
6.28811e-08
7.76673e-08
9.6105e-08
1.13267e-07
1.34249e-07
1.53977e-07
1.72772e-07
1.90613e-07
2.0914e-07
2.26572e-07
2.43091e-07
2.0998e-08
3.17274e-08
4.30936e-08
5.31417e-08
6.28811e-08
7.76673e-08
9.6105e-08
1.13267e-07
1.34249e-07
1.53977e-07
1.72772e-07
1.90613e-07
2.0914e-07
2.26572e-07
2.43091e-07
2.0998e-08
3.17274e-08
4.30936e-08
5.31417e-08
6.28811e-08
7.76673e-08
9.6105e-08
1.13267e-07
1.34249e-07
1.53977e-07
1.72772e-07
1.90613e-07
2.0914e-07
2.26572e-07
2.43091e-07
SCALARS Solute_Concentration_Fe+++ float 1
LOOKUP_TABLE default
8.35922e-09
1.2651e-08
1.71974e-08
2.12167e-08
2.51124e-08
3.10269e-08
3.8402e-08
4.52668e-08
5.36594e-08
6.15509e-08
6.90689e-08
7.62052e-08
8.36161e-08
9.05887e-08
9.71965e-08
8.35922e-09
1.2651e-08
1.71974e-08
2.12167e-08
2.51124e-08
3.10269e-08
3.8402e-08
4.52668e-08
5.36594e-08
6.15509e-08
6.90689e-08
7.62052e-08
8.36161e-08
9.05887e-08
9.71965e-08
8.35922e-09
1.2651e-08
1.71974e-08
2.12167e-08
2.51124e-08
3.10269e-08
3.8402e-08
4.52668e-08
5.36594e-08
6.15509e-08
6.90689e-08
7.62052e-08
8.36161e-08
9.05887e-08
9.71965e-08
8.35922e-09
1.2651e-08
1.71974e-08
2.12167e-08
2.51124e-08
3.10269e-08
3.8402e-08
4.52668e-08
5.36594e-08
6.15509e-08
6.90689e-08
7.62052e-08
8.36161e-08
9.05887e-08
9.71965e-08
SCALARS Solute_Concentration_H+ float 1
LOOKUP_TABLE default
-4.2519e-05
-5.2825e-05
-6.1633e-05
-6.80701e-05
-7.1606e-05
-7.47814e-05
-7.53747e-05
-7.63832e-05
-7.87919e-05
-7.93639e-05
-8.22268e-05
-8.6483e-05
-9.01021e-05
-9.45525e-05
-9.75938e-05
-4.2519e-05
-5.2825e-05
-6.1633e-05
-6.80701e-05
-7.1606e-05
-7.47814e-05
-7.53747e-05
-7.63832e-05
-7.87919e-05
-7.93639e-05
-8.22268e-05
-8.6483e-05
-9.01021e-05
-9.45525e-05
-9.75938e-05
-4.2519e-05
-5.2825e-05
-6.1633e-05
-6.80701e-05
-7.1606e-05
-7.47814e-05
-7.53747e-05
-7.63832e-05
-7.87919e-05
-7.93639e-05
-8.22268e-05
-8.6483e-05
-9.01021e-05
-9.45525e-05
-9.75938e-05
-4.2519e-05
-5.2825e-05
-6.1633e-05
-6.80701e-05
-7.1606e-05
-7.47814e-05
-7.53747e-05
-7.63832e-05
-7.87919e-05
-7.93639e-05
-8.22268e-05
-8.6483e-05
-9.01021e-05
-9.45525e-05
-9.75938e-05
SCALARS Solute_Concentration_K+ float 1
LOOKUP_TABLE default
1.89683e-05
2.0249e-05
2.15253e-05
2.27914e-05
2.41017e-05
2.62209e-05
2.84953e-05
3.09354e-05
3.33257e-05
3.55583e-05
3.78959e-05
4.00428e-05
4.20981e-05
4.40162e-05
4.58067e-05
1.89683e-05
2.0249e-05
2.15253e-05
2.27914e-05
2.41017e-05
2.62209e-05
2.84953e-05
3.09354e-05
3.33257e-05
3.55583e-05
3.78959e-05
4.00428e-05
4.20981e-05
4.40162e-05
4.58067e-05
1.89683e-05
2.0249e-05
2.15253e-05
2.27914e-05
2.41017e-05
2.62209e-05
2.84953e-05
3.09354e-05
3.33257e-05
3.55583e-05
3.78959e-05
4.00428e-05
4.20981e-05
4.40162e-05
4.58067e-05
1.89683e-05
2.0249e-05
2.15253e-05
2.27914e-05
2.41017e-05
2.62209e-05
2.84953e-05
3.09354e-05
3.33257e-05
3.55583e-05
3.78959e-05
4.00428e-05
4.20981e-05
4.40162e-05
4.58067e-05
SCALARS Solute_Concentration_Mg++ float 1
LOOKUP_TABLE default
6.88481e-05
6.88727e-05
6.88989e-05
6.8922e-05
6.89444e-05
6.89784e-05
6.90208e-05
6.90603e-05
6.91085e-05
6.91539e-05
6.91972e-05
6.92382e-05
6.92808e-05
6.93209e-05
6.93589e-05
6.88481e-05
6.88727e-05
6.88989e-05
6.8922e-05
6.89444e-05
6.89784e-05
6.90208e-05
6.90603e-05
6.91085e-05
6.91539e-05
6.91972e-05
6.92382e-05
6.92808e-05
6.93209e-05
6.93589e-05
6.88481e-05
6.88727e-05
6.88989e-05
6.8922e-05
6.89444e-05
6.89784e-05
6.90208e-05
6.90603e-05
6.91085e-05
6.91539e-05
6.91972e-05
6.92382e-05
6.92808e-05
6.93209e-05
6.93589e-05
6.88481e-05
6.88727e-05
6.88989e-05
6.8922e-05
6.89444e-05
6.89784e-05
6.90208e-05
6.90603e-05
6.91085e-05
6.91539e-05
6.91972e-05
6.92382e-05
6.92808e-05
6.93209e-05
6.93589e-05
SCALARS Solute_Concentration_NO3- float 1
LOOKUP_TABLE default
0.0001
0.0001
0.0001
0.0001
0.0001
0.0001
0.0001
0.0001
0.0001
0.0001
0.0001
0.0001
0.0001
0.0001
0.0001
0.0001
0.0001
0.0001
0.0001
0.0001
0.0001
0.0001
0.0001
0.0001
0.0001
0.0001
0.0001
0.0001
0.0001
0.0001
0.0001
0.0001
0.0001
0.0001
0.0001
0.0001
0.0001
0.0001
0.0001
0.0001
0.0001
0.0001
0.0001
0.0001
0.0001
0.0001
0.0001
0.0001
0.0001
0.0001
0.0001
0.0001
0.0001
0.0001
0.0001
0.0001
0.0001
0.0001
0.0001
0.0001
SCALARS Solute_Concentration_Na+ float 1
LOOKUP_TABLE default
0.000428932
0.00043073
0.000432588
0.0004344
0.000436098
0.000438786
0.000442225
0.000445836
0.000449272
0.000452458
0.000455878
0.000459208
0.000462517
0.000465937
0.000468632
0.000428932
0.00043073
0.000432588
0.0004344
0.000436098
0.000438786
0.000442225
0.000445836
0.000449272
0.000452458
0.000455878
0.000459208
0.000462517
0.000465937
0.000468632
0.000428932
0.00043073
0.000432588
0.0004344
0.000436098
0.000438786
0.000442225
0.000445836
0.000449272
0.000452458
0.000455878
0.000459208
0.000462517
0.000465937
0.000468632
0.000428932
0.00043073
0.000432588
0.0004344
0.000436098
0.000438786
0.000442225
0.000445836
0.000449272
0.000452458
0.000455878
0.000459208
0.000462517
0.000465937
0.000468632
SCALARS Solute_Concentration_SO4-- float 1
LOOKUP_TABLE default
0.000161
0.000161
0.000161
0.000161
0.000161
0.000161
0.000161
0.000161
0.000161
0.000161
0.000161
0.000161
0.000161
0.000161
0.000161
0.000161
0.000161
0.000161
0.000161
0.000161
0.000161
0.000161
0.000161
0.000161
0.000161
0.000161
0.000161
0.000161
0.000161
0.000161
0.000161
0.000161
0.000161
0.000161
0.000161
0.000161
0.000161
0.000161
0.000161
0.000161
0.000161
0.000161
0.000161
0.000161
0.000161
0.000161
0.000161
0.000161
0.000161
0.000161
0.000161
0.000161
0.000161
0.000161
0.000161
0.000161
0.000161
0.000161
0.000161
0.000161
SCALARS Solute_Concentration_SiO2(aq) float 1
LOOKUP_TABLE default
2.03017e-05
2.88766e-05
3.70441e-05
4.43254e-05
5.05245e-05
5.96054e-05
6.93382e-05
7.97699e-05
9.02986e-05
9.95322e-05
0.000110095
0.000120655
0.000130814
0.000141206
0.000149706
2.03017e-05
2.88766e-05
3.70441e-05
4.43254e-05
5.05245e-05
5.96054e-05
6.93382e-05
7.97699e-05
9.02986e-05
9.95322e-05
0.000110095
0.000120655
0.000130814
0.000141206
0.000149706
2.03017e-05
2.88766e-05
3.70441e-05
4.43254e-05
5.05245e-05
5.96054e-05
6.93382e-05
7.97699e-05
9.02986e-05
9.95322e-05
0.000110095
0.000120655
0.000130814
0.000141206
0.000149706
2.03017e-05
2.88766e-05
3.70441e-05
4.43254e-05
5.05245e-05
5.96054e-05
6.93382e-05
7.97699e-05
9.02986e-05
9.95322e-05
0.000110095
0.000120655
0.000130814
0.000141206
0.000149706
SCALARS Solute_Concentration_Sr++ float 1
LOOKUP_TABLE default
5.07e-07
5.07e-07
5.07e-07
5.07e-07
5.07e-07
5.07e-07
5.07e-07
5.07e-07
5.07e-07
5.07e-07
5.07e-07
5.07e-07
5.07e-07
5.07e-07
5.07e-07
5.07e-07
5.07e-07
5.07e-07
5.07e-07
5.07e-07
5.07e-07
5.07e-07
5.07e-07
5.07e-07
5.07e-07
5.07e-07
5.07e-07
5.07e-07
5.07e-07
5.07e-07
5.07e-07
5.07e-07
5.07e-07
5.07e-07
5.07e-07
5.07e-07
5.07e-07
5.07e-07
5.07e-07
5.07e-07
5.07e-07
5.07e-07
5.07e-07
5.07e-07
5.07e-07
5.07e-07
5.07e-07
5.07e-07
5.07e-07
5.07e-07
5.07e-07
5.07e-07
5.07e-07
5.07e-07
5.07e-07
5.07e-07
5.07e-07
5.07e-07
5.07e-07
5.07e-07
SCALARS Reaction_rates_Moles_per_L_porusmedium_per_second_Albite float 1
LOOKUP_TABLE default
1.24993e-16
1.26242e-15
7.24827e-15
1.47226e-14
3.55173e-14
5.64539e-14
7.16344e-14
7.35283e-14
6.41013e-14
6.95899e-14
6.43266e-14
5.45646e-14
6.00298e-14
5.77319e-14
6.03845e-14
1.24993e-16
1.26242e-15
7.24827e-15
1.47226e-14
3.55173e-14
5.64539e-14
7.16344e-14
7.35283e-14
6.41013e-14
6.95899e-14
6.43266e-14
5.45646e-14
6.00298e-14
5.77319e-14
6.03845e-14
1.24993e-16
1.26242e-15
7.24827e-15
1.47226e-14
3.55173e-14
5.64539e-14
7.16344e-14
7.35283e-14
6.41013e-14
6.95899e-14
6.43266e-14
5.45646e-14
6.00298e-14
5.77319e-14
6.03845e-14
1.24993e-16
1.26242e-15
7.24827e-15
1.47226e-14
3.55173e-14
5.64539e-14
7.16344e-14
7.35283e-14
6.41013e-14
6.95899e-14
6.43266e-14
5.45646e-14
6.00298e-14
5.77319e-14
6.03845e-14
SCALARS Reaction_rates_Moles_per_L_porusmedium_per_second_Quartz float 1
LOOKUP_TABLE default
-3.74274e-14
-3.59755e-14
-3.58475e-14
-3.3978e-14
-3.84667e-14
-4.86591e-14
-4.28169e-14
-4.46085e-14
-4.45025e-14
-4.21593e-14
-4.33433e-14
-3.99805e-14
-4.09584e-14
-3.8104e-14
-4.27348e-14
-3.74274e-14
-3.59755e-14
-3.58475e-14
-3.3978e-14
-3.84667e-14
-4.86591e-14
-4.28169e-14
-4.46085e-14
-4.45025e-14
-4.21593e-14
-4.33433e-14
-3.99805e-14
-4.09584e-14
-3.8104e-14
-4.27348e-14
-3.74274e-14
-3.59755e-14
-3.58475e-14
-3.3978e-14
-3.84667e-14
-4.86591e-14
-4.28169e-14
-4.46085e-14
-4.45025e-14
-4.21593e-14
-4.33433e-14
-3.99805e-14
-4.09584e-14
-3.8104e-14
-4.27348e-14
-3.74274e-14
-3.59755e-14
-3.58475e-14
-3.3978e-14
-3.84667e-14
-4.86591e-14
-4.28169e-14
-4.46085e-14
-4.45025e-14
-4.21593e-14
-4.33433e-14
-3.99805e-14
-4.09584e-14
-3.8104e-14
-4.27348e-14
SCALARS Mineral_mass_fraction_Albite float 1
LOOKUP_TABLE default
0.51613
0.531374
0.480899
0.483343
0.490232
0.500436
0.499606
0.501425
0.49995
0.501705
0.498765
0.501111
0.499044
0.501596
0.500328
0.493729
0.51211
0.538747
0.517467
0.44205
0.501402
0.499043
0.501292
0.500122
0.499729
0.500841
0.502357
0.49687
0.503782
0.499032
0.52117
0.474071
0.501287
0.483974
0.520512
0.500731
0.500555
0.500586
0.501049
0.499446
0.500222
0.50027
0.500929
0.499983
0.500892
0.527212
0.493426
0.496048
0.505716
0.481611
0.500875
0.50093
0.499084
0.50061
0.500974
0.50054
0.500964
0.499155
0.499824
0.501192
SCALARS Mineral_mass_fraction_Quartz float 1
LOOKUP_TABLE default
0.48387
0.468626
0.519101
0.516657
0.509768
0.499564
0.500394
0.498575
0.50005
0.498295
0.501235
0.498889
0.500956
0.498404
0.499672
0.506271
0.48789
0.461253
0.482533
0.55795
0.498598
0.500957
0.498708
0.499878
0.500271
0.499159
0.497643
0.50313
0.496218
0.500968
0.47883
0.525929
0.498713
0.516026
0.479488
0.499269
0.499445
0.499414
0.498951
0.500554
0.499778
0.49973
0.499071
0.500017
0.499108
0.472788
0.506574
0.503952
0.494284
0.518389
0.499125
0.49907
0.500916
0.49939
0.499026
0.49946
0.499036
0.500845
0.500176
0.498808
SCALARS Mineral_depletion_ratio_Albite float 1
LOOKUP_TABLE default
2095.66
2110.23
2114.22
2124.93
2128.35
1645.08
1740.64
1689.42
1645.73
1640.61
1690.73
1703.71
1698.4
1614.9
1703.73
2149.79
2202.73
2296.47
2248.02
2097.95
1673.26
1694.96
1737.01
1863.84
1653.67
1609.7
1636.16
1648
1619.22
1667.34
2049.2
2095.83
2058.13
2076.5
2060.82
1707.84
1663.67
1691.32
1618.91
1739.83
1642.74
1609.7
1704.71
1764.3
1651.34
2308.49
2194.57
2273.11
2356.27
2304.16
1664.35
1692.69
1723.95
1746.35
1738.83
1656.5
1628.95
1583.07
1786.55
1619.11
SCALARS Mineral_depletion_ratio_Quartz float 1
LOOKUP_TABLE default
2109.29
2132.69
2093.59
2092.33
2105.93
1731.79
1754.36
1595.41
1782.88
1549.87
1636.79
1696.15
1679.18
1765.18
1714.65
2110.21
2184.76
2007.95
2015.55
2347.78
1731.32
1613.15
1730.75
1642.68
1631.29
1822.36
1659.58
1696.53
1771.64
1587.8
2166.41
2130.51
2151.26
2123.98
2166.37
1708.07
1721.69
1591.29
1719.51
1605.02
1696.19
1820.57
1570.81
1666.93
1680.44
2301.43
2305.6
2244.8
2296.07
2321.59
1750.29
1736.41
1572.01
1671.53
1616.36
1711.53
1627.43
1676.87
1799.33
1630.4
