# vtk DataFile Version 2.0
Unstructured Grid Ptrack_cells
ASCII

DATASET UNSTRUCTURED_GRID
POINTS 80 float
0 99.9922 0.0
0 99.8918 0.0
0 99.7913 0.0
0 99.6909 0.0
0 99.5904 0.0
0 99.49 0.0
0 99.3402 0.0
0 99.1904 0.0
0 99.0407 0.0
0 98.8909 0.0
0 98.7411 0.0
0 98.5913 0.0
0 98.4416 0.0
0 98.2918 0.0
0 98.142 0.0
0 97.9922 0.0
0.1 99.9922 0.0
0.1 99.8918 0.0
0.1 99.7913 0.0
0.1 99.6909 0.0
0.1 99.5904 0.0
0.1 99.49 0.0
0.1 99.3402 0.0
0.1 99.1904 0.0
0.1 99.0407 0.0
0.1 98.8909 0.0
0.1 98.7411 0.0
0.1 98.5913 0.0
0.1 98.4416 0.0
0.1 98.2918 0.0
0.1 98.142 0.0
0.1 97.9922 0.0
0.2 99.9922 0.0
0.2 99.8918 0.0
0.2 99.7913 0.0
0.2 99.6909 0.0
0.2 99.5904 0.0
0.2 99.49 0.0
0.2 99.3402 0.0
0.2 99.1904 0.0
0.2 99.0407 0.0
0.2 98.8909 0.0
0.2 98.7411 0.0
0.2 98.5913 0.0
0.2 98.4416 0.0
0.2 98.2918 0.0
0.2 98.142 0.0
0.2 97.9922 0.0
0.3 99.9922 0.0
0.3 99.8918 0.0
0.3 99.7913 0.0
0.3 99.6909 0.0
0.3 99.5904 0.0
0.3 99.49 0.0
0.3 99.3402 0.0
0.3 99.1904 0.0
0.3 99.0407 0.0
0.3 98.8909 0.0
0.3 98.7411 0.0
0.3 98.5913 0.0
0.3 98.4416 0.0
0.3 98.2918 0.0
0.3 98.142 0.0
0.3 97.9922 0.0
0.4 99.9922 0.0
0.4 99.8918 0.0
0.4 99.7913 0.0
0.4 99.6909 0.0
0.4 99.5904 0.0
0.4 99.49 0.0
0.4 99.3402 0.0
0.4 99.1904 0.0
0.4 99.0407 0.0
0.4 98.8909 0.0
0.4 98.7411 0.0
0.4 98.5913 0.0
0.4 98.4416 0.0
0.4 98.2918 0.0
0.4 98.142 0.0
0.4 97.9922 0.0

CELLS 60 300
4 0 16 17 1
4 1 17 18 2
4 2 18 19 3
4 3 19 20 4
4 4 20 21 5
4 5 21 22 6
4 6 22 23 7
4 7 23 24 8
4 8 24 25 9
4 9 25 26 10
4 10 26 27 11
4 11 27 28 12
4 12 28 29 13
4 13 29 30 14
4 14 30 31 15
4 16 32 33 17
4 17 33 34 18
4 18 34 35 19
4 19 35 36 20
4 20 36 37 21
4 21 37 38 22
4 22 38 39 23
4 23 39 40 24
4 24 40 41 25
4 25 41 42 26
4 26 42 43 27
4 27 43 44 28
4 28 44 45 29
4 29 45 46 30
4 30 46 47 31
4 32 48 49 33
4 33 49 50 34
4 34 50 51 35
4 35 51 52 36
4 36 52 53 37
4 37 53 54 38
4 38 54 55 39
4 39 55 56 40
4 40 56 57 41
4 41 57 58 42
4 42 58 59 43
4 43 59 60 44
4 44 60 61 45
4 45 61 62 46
4 46 62 63 47
4 48 64 65 49
4 49 65 66 50
4 50 66 67 51
4 51 67 68 52
4 52 68 69 53
4 53 69 70 54
4 54 70 71 55
4 55 71 72 56
4 56 72 73 57
4 57 73 74 58
4 58 74 75 59
4 59 75 76 60
4 60 76 77 61
4 61 77 78 62
4 62 78 79 63

CELL_TYPES 60
9
9
9
9
9
9
9
9
9
9
9
9
9
9
9
9
9
9
9
9
9
9
9
9
9
9
9
9
9
9
9
9
9
9
9
9
9
9
9
9
9
9
9
9
9
9
9
9
9
9
9
9
9
9
9
9
9
9
9
9

CELL_DATA 60
SCALARS SOIL_OR_PARENT int 1
LOOKUP_TABLE default
1
1
1
1
1
0
0
0
0
0
0
0
0
0
0
1
1
1
1
1
0
0
0
0
0
0
0
0
0
0
1
1
1
1
1
0
0
0
0
0
0
0
0
0
0
1
1
1
1
1
0
0
0
0
0
0
0
0
0
0
SCALARS CELL_NUM int 1
LOOKUP_TABLE default
0
1
2
3
4
5
6
7
8
9
10
11
12
13
14
15
16
17
18
19
20
21
22
23
24
25
26
27
28
29
30
31
32
33
34
35
36
37
38
39
40
41
42
43
44
45
46
47
48
49
50
51
52
53
54
55
56
57
58
59
SCALARS Mineral_volume_percents_Albite float 1
LOOKUP_TABLE default
383329
363520
352460
351946
345394
360997
359732
358912
361155
357765
367787
353116
365073
356103
351749
355468
342781
390052
402081
314247
358534
366102
354275
362364
359349
356017
366166
359986
361280
349090
362369
341883
393959
393005
336217
364659
358537
355410
361001
362191
361906
353952
368297
356424
351323
367193
348492
365632
379557
339520
359287
361329
359330
360564
365402
356289
360767
357276
360352
353777
SCALARS Mineral_volume_percents_Quartz float 1
LOOKUP_TABLE default
371797
340830
364821
350920
368165
357251
358898
362272
363271
363185
351902
362004
360232
358700
351437
359859
386918
403617
334735
330103
356924
362853
365648
355088
361321
360172
359492
355499
365055
347754
358625
371642
364961
375143
363891
356824
364175
355760
362556
356114
362609
356529
360843
363622
348649
342900
364127
361714
345420
388182
358175
360570
358921
360427
358819
356846
364513
357723
360484
352025
SCALARS Mineral_specific_surface_area_m2perg_Albite float 1
LOOKUP_TABLE default
0.090566
0.090566
0.090566
0.090566
0.090566
0.090566
0.090566
0.090566
0.090566
0.090566
0.090566
0.090566
0.090566
0.090566
0.090566
0.090566
0.090566
0.090566
0.090566
0.090566
0.090566
0.090566
0.090566
0.090566
0.090566
0.090566
0.090566
0.090566
0.090566
0.090566
0.090566
0.090566
0.090566
0.090566
0.090566
0.090566
0.090566
0.090566
0.090566
0.090566
0.090566
0.090566
0.090566
0.090566
0.090566
0.090566
0.090566
0.090566
0.090566
0.090566
0.090566
0.090566
0.090566
0.090566
0.090566
0.090566
0.090566
0.090566
0.090566
0.090566
SCALARS Mineral_specific_surface_area_m2perg_Quartz float 1
LOOKUP_TABLE default
0.090566
0.090566
0.090566
0.090566
0.090566
0.090566
0.090566
0.090566
0.090566
0.090566
0.090566
0.090566
0.090566
0.090566
0.090566
0.090566
0.090566
0.090566
0.090566
0.090566
0.090566
0.090566
0.090566
0.090566
0.090566
0.090566
0.090566
0.090566
0.090566
0.090566
0.090566
0.090566
0.090566
0.090566
0.090566
0.090566
0.090566
0.090566
0.090566
0.090566
0.090566
0.090566
0.090566
0.090566
0.090566
0.090566
0.090566
0.090566
0.090566
0.090566
0.090566
0.090566
0.090566
0.090566
0.090566
0.090566
0.090566
0.090566
0.090566
0.090566
SCALARS Mineral_mass_kg_Albite float 1
LOOKUP_TABLE default
102034
96760.9
93817
93680.2
91936.1
143284
142782
142456
143347
142001
145979
140155
144902
141341
139613
94617.6
91240.8
103823
107025
83645.7
142306
145310
140616
143826
142630
141307
145335
142882
143396
138558
96454.7
91001.8
104863
104609
89493.4
144737
142307
141066
143285
143758
143644
140488
146181
141469
139444
97738.5
92760.7
97323.2
101030
90372.6
142605
143416
142622
143112
145032
141415
143192
141807
143028
140418
SCALARS Mineral_mass_kg_Quartz float 1
LOOKUP_TABLE default
98964.1
90721.3
97107.2
93407.2
97997.5
141797
142451
143790
144186
144152
139674
143684
142980
142372
139489
95786.4
102989
107434
89098.9
87866.1
141667
144020
145130
140938
143412
142956
142686
141102
144894
138028
95458.1
98922.7
97144.5
99854.7
96859.6
141627
144545
141205
143902
141346
143923
141510
143223
144326
138382
91272.4
96922.4
96280.3
91943.1
103325
142164
143114
142460
143057
142419
141636
144679
141984
143080
139723
SCALARS Mineral_surface_area_m2_Albite float 1
LOOKUP_TABLE default
9.24078e+06
8.76325e+06
8.49663e+06
8.48424e+06
8.32629e+06
1.29766e+07
1.29312e+07
1.29017e+07
1.29823e+07
1.28604e+07
1.32207e+07
1.26933e+07
1.31232e+07
1.28007e+07
1.26442e+07
8.56915e+06
8.26332e+06
9.40286e+06
9.69283e+06
7.57546e+06
1.28881e+07
1.31602e+07
1.2735e+07
1.30258e+07
1.29174e+07
1.27976e+07
1.31625e+07
1.29403e+07
1.29868e+07
1.25486e+07
8.73552e+06
8.24167e+06
9.49703e+06
9.47403e+06
8.10506e+06
1.31083e+07
1.28882e+07
1.27758e+07
1.29768e+07
1.30196e+07
1.30093e+07
1.27234e+07
1.32391e+07
1.28123e+07
1.26289e+07
8.85179e+06
8.40097e+06
8.81418e+06
9.14986e+06
8.18469e+06
1.29152e+07
1.29886e+07
1.29167e+07
1.29611e+07
1.3135e+07
1.28074e+07
1.29684e+07
1.28429e+07
1.29534e+07
1.27171e+07
SCALARS Mineral_surface_area_m2_Quartz float 1
LOOKUP_TABLE default
8.96279e+06
8.21627e+06
8.79461e+06
8.45952e+06
8.87524e+06
1.2842e+07
1.29012e+07
1.30225e+07
1.30584e+07
1.30553e+07
1.26497e+07
1.30129e+07
1.29491e+07
1.28941e+07
1.2633e+07
8.675e+06
9.32729e+06
9.72986e+06
8.06934e+06
7.95768e+06
1.28302e+07
1.30434e+07
1.31438e+07
1.27642e+07
1.29883e+07
1.2947e+07
1.29225e+07
1.2779e+07
1.31225e+07
1.25006e+07
8.64526e+06
8.95904e+06
8.79799e+06
9.04344e+06
8.77219e+06
1.28266e+07
1.30909e+07
1.27884e+07
1.30327e+07
1.28011e+07
1.30346e+07
1.2816e+07
1.29711e+07
1.3071e+07
1.25328e+07
8.26618e+06
8.77788e+06
8.71973e+06
8.32692e+06
9.35778e+06
1.28752e+07
1.29613e+07
1.2902e+07
1.29561e+07
1.28984e+07
1.28274e+07
1.3103e+07
1.28589e+07
1.29582e+07
1.26541e+07
SCALARS Solute_Concentration_Al+++ float 1
LOOKUP_TABLE default
6.13522e-06
8.5158e-06
1.03771e-05
1.14705e-05
1.16207e-05
1.10378e-05
9.28239e-06
7.55658e-06
6.36187e-06
4.69461e-06
3.68021e-06
3.22612e-06
2.59559e-06
2.25382e-06
1.72905e-06
6.13522e-06
8.5158e-06
1.03771e-05
1.14705e-05
1.16207e-05
1.10378e-05
9.28239e-06
7.55658e-06
6.36187e-06
4.69461e-06
3.68021e-06
3.22612e-06
2.59559e-06
2.25382e-06
1.72905e-06
6.13522e-06
8.5158e-06
1.03771e-05
1.14705e-05
1.16207e-05
1.10378e-05
9.28239e-06
7.55658e-06
6.36187e-06
4.69461e-06
3.68021e-06
3.22612e-06
2.59559e-06
2.25382e-06
1.72905e-06
6.13522e-06
8.5158e-06
1.03771e-05
1.14705e-05
1.16207e-05
1.10378e-05
9.28239e-06
7.55658e-06
6.36187e-06
4.69461e-06
3.68021e-06
3.22612e-06
2.59559e-06
2.25382e-06
1.72905e-06
SCALARS Solute_Concentration_CO2(aq) float 1
LOOKUP_TABLE default
0.00964234
0.0094933
0.00936644
0.00927138
0.00921234
0.00914699
0.00910561
0.00905555
0.0089879
0.00894332
0.00886696
0.00877443
0.00868895
0.00859295
0.00851923
0.00964234
0.0094933
0.00936644
0.00927138
0.00921234
0.00914699
0.00910561
0.00905555
0.0089879
0.00894332
0.00886696
0.00877443
0.00868895
0.00859295
0.00851923
0.00964234
0.0094933
0.00936644
0.00927138
0.00921234
0.00914699
0.00910561
0.00905555
0.0089879
0.00894332
0.00886696
0.00877443
0.00868895
0.00859295
0.00851923
0.00964234
0.0094933
0.00936644
0.00927138
0.00921234
0.00914699
0.00910561
0.00905555
0.0089879
0.00894332
0.00886696
0.00877443
0.00868895
0.00859295
0.00851923
SCALARS Solute_Concentration_Ca++ float 1
LOOKUP_TABLE default
9.0701e-05
9.07016e-05
9.07021e-05
9.07027e-05
9.07031e-05
9.07039e-05
9.07048e-05
9.07057e-05
9.07067e-05
9.07077e-05
9.07086e-05
9.07095e-05
9.07104e-05
9.07113e-05
9.07122e-05
9.0701e-05
9.07016e-05
9.07021e-05
9.07027e-05
9.07031e-05
9.07039e-05
9.07048e-05
9.07057e-05
9.07067e-05
9.07077e-05
9.07086e-05
9.07095e-05
9.07104e-05
9.07113e-05
9.07122e-05
9.0701e-05
9.07016e-05
9.07021e-05
9.07027e-05
9.07031e-05
9.07039e-05
9.07048e-05
9.07057e-05
9.07067e-05
9.07077e-05
9.07086e-05
9.07095e-05
9.07104e-05
9.07113e-05
9.07122e-05
9.0701e-05
9.07016e-05
9.07021e-05
9.07027e-05
9.07031e-05
9.07039e-05
9.07048e-05
9.07057e-05
9.07067e-05
9.07077e-05
9.07086e-05
9.07095e-05
9.07104e-05
9.07113e-05
9.07122e-05
SCALARS Solute_Concentration_Cl- float 1
LOOKUP_TABLE default
0.000465
0.000465
0.000465
0.000465
0.000465
0.000465
0.000465
0.000465
0.000465
0.000465
0.000465
0.000465
0.000465
0.000465
0.000465
0.000465
0.000465
0.000465
0.000465
0.000465
0.000465
0.000465
0.000465
0.000465
0.000465
0.000465
0.000465
0.000465
0.000465
0.000465
0.000465
0.000465
0.000465
0.000465
0.000465
0.000465
0.000465
0.000465
0.000465
0.000465
0.000465
0.000465
0.000465
0.000465
0.000465
0.000465
0.000465
0.000465
0.000465
0.000465
0.000465
0.000465
0.000465
0.000465
0.000465
0.000465
0.000465
0.000465
0.000465
0.000465
SCALARS Solute_Concentration_Fe++ float 1
LOOKUP_TABLE default
2.0998e-08
3.17274e-08
4.30936e-08
5.31417e-08
6.28811e-08
7.76673e-08
9.6105e-08
1.13267e-07
1.34249e-07
1.53977e-07
1.72772e-07
1.90613e-07
2.0914e-07
2.26572e-07
2.43091e-07
2.0998e-08
3.17274e-08
4.30936e-08
5.31417e-08
6.28811e-08
7.76673e-08
9.6105e-08
1.13267e-07
1.34249e-07
1.53977e-07
1.72772e-07
1.90613e-07
2.0914e-07
2.26572e-07
2.43091e-07
2.0998e-08
3.17274e-08
4.30936e-08
5.31417e-08
6.28811e-08
7.76673e-08
9.6105e-08
1.13267e-07
1.34249e-07
1.53977e-07
1.72772e-07
1.90613e-07
2.0914e-07
2.26572e-07
2.43091e-07
2.0998e-08
3.17274e-08
4.30936e-08
5.31417e-08
6.28811e-08
7.76673e-08
9.6105e-08
1.13267e-07
1.34249e-07
1.53977e-07
1.72772e-07
1.90613e-07
2.0914e-07
2.26572e-07
2.43091e-07
SCALARS Solute_Concentration_Fe+++ float 1
LOOKUP_TABLE default
8.35922e-09
1.2651e-08
1.71974e-08
2.12167e-08
2.51124e-08
3.10269e-08
3.8402e-08
4.52668e-08
5.36594e-08
6.15509e-08
6.90689e-08
7.62052e-08
8.36161e-08
9.05887e-08
9.71965e-08
8.35922e-09
1.2651e-08
1.71974e-08
2.12167e-08
2.51124e-08
3.10269e-08
3.8402e-08
4.52668e-08
5.36594e-08
6.15509e-08
6.90689e-08
7.62052e-08
8.36161e-08
9.05887e-08
9.71965e-08
8.35922e-09
1.2651e-08
1.71974e-08
2.12167e-08
2.51124e-08
3.10269e-08
3.8402e-08
4.52668e-08
5.36594e-08
6.15509e-08
6.90689e-08
7.62052e-08
8.36161e-08
9.05887e-08
9.71965e-08
8.35922e-09
1.2651e-08
1.71974e-08
2.12167e-08
2.51124e-08
3.10269e-08
3.8402e-08
4.52668e-08
5.36594e-08
6.15509e-08
6.90689e-08
7.62052e-08
8.36161e-08
9.05887e-08
9.71965e-08
SCALARS Solute_Concentration_H+ float 1
LOOKUP_TABLE default
-4.2519e-05
-5.2825e-05
-6.1633e-05
-6.80701e-05
-7.1606e-05
-7.47814e-05
-7.53747e-05
-7.63832e-05
-7.87919e-05
-7.93639e-05
-8.22268e-05
-8.6483e-05
-9.01021e-05
-9.45525e-05
-9.75938e-05
-4.2519e-05
-5.2825e-05
-6.1633e-05
-6.80701e-05
-7.1606e-05
-7.47814e-05
-7.53747e-05
-7.63832e-05
-7.87919e-05
-7.93639e-05
-8.22268e-05
-8.6483e-05
-9.01021e-05
-9.45525e-05
-9.75938e-05
-4.2519e-05
-5.2825e-05
-6.1633e-05
-6.80701e-05
-7.1606e-05
-7.47814e-05
-7.53747e-05
-7.63832e-05
-7.87919e-05
-7.93639e-05
-8.22268e-05
-8.6483e-05
-9.01021e-05
-9.45525e-05
-9.75938e-05
-4.2519e-05
-5.2825e-05
-6.1633e-05
-6.80701e-05
-7.1606e-05
-7.47814e-05
-7.53747e-05
-7.63832e-05
-7.87919e-05
-7.93639e-05
-8.22268e-05
-8.6483e-05
-9.01021e-05
-9.45525e-05
-9.75938e-05
SCALARS Solute_Concentration_K+ float 1
LOOKUP_TABLE default
1.89683e-05
2.0249e-05
2.15253e-05
2.27914e-05
2.41017e-05
2.62209e-05
2.84953e-05
3.09354e-05
3.33257e-05
3.55583e-05
3.78959e-05
4.00428e-05
4.20981e-05
4.40162e-05
4.58067e-05
1.89683e-05
2.0249e-05
2.15253e-05
2.27914e-05
2.41017e-05
2.62209e-05
2.84953e-05
3.09354e-05
3.33257e-05
3.55583e-05
3.78959e-05
4.00428e-05
4.20981e-05
4.40162e-05
4.58067e-05
1.89683e-05
2.0249e-05
2.15253e-05
2.27914e-05
2.41017e-05
2.62209e-05
2.84953e-05
3.09354e-05
3.33257e-05
3.55583e-05
3.78959e-05
4.00428e-05
4.20981e-05
4.40162e-05
4.58067e-05
1.89683e-05
2.0249e-05
2.15253e-05
2.27914e-05
2.41017e-05
2.62209e-05
2.84953e-05
3.09354e-05
3.33257e-05
3.55583e-05
3.78959e-05
4.00428e-05
4.20981e-05
4.40162e-05
4.58067e-05
SCALARS Solute_Concentration_Mg++ float 1
LOOKUP_TABLE default
6.88481e-05
6.88727e-05
6.88989e-05
6.8922e-05
6.89444e-05
6.89784e-05
6.90208e-05
6.90603e-05
6.91085e-05
6.91539e-05
6.91972e-05
6.92382e-05
6.92808e-05
6.93209e-05
6.93589e-05
6.88481e-05
6.88727e-05
6.88989e-05
6.8922e-05
6.89444e-05
6.89784e-05
6.90208e-05
6.90603e-05
6.91085e-05
6.91539e-05
6.91972e-05
6.92382e-05
6.92808e-05
6.93209e-05
6.93589e-05
6.88481e-05
6.88727e-05
6.88989e-05
6.8922e-05
6.89444e-05
6.89784e-05
6.90208e-05
6.90603e-05
6.91085e-05
6.91539e-05
6.91972e-05
6.92382e-05
6.92808e-05
6.93209e-05
6.93589e-05
6.88481e-05
6.88727e-05
6.88989e-05
6.8922e-05
6.89444e-05
6.89784e-05
6.90208e-05
6.90603e-05
6.91085e-05
6.91539e-05
6.91972e-05
6.92382e-05
6.92808e-05
6.93209e-05
6.93589e-05
SCALARS Solute_Concentration_NO3- float 1
LOOKUP_TABLE default
0.0001
0.0001
0.0001
0.0001
0.0001
0.0001
0.0001
0.0001
0.0001
0.0001
0.0001
0.0001
0.0001
0.0001
0.0001
0.0001
0.0001
0.0001
0.0001
0.0001
0.0001
0.0001
0.0001
0.0001
0.0001
0.0001
0.0001
0.0001
0.0001
0.0001
0.0001
0.0001
0.0001
0.0001
0.0001
0.0001
0.0001
0.0001
0.0001
0.0001
0.0001
0.0001
0.0001
0.0001
0.0001
0.0001
0.0001
0.0001
0.0001
0.0001
0.0001
0.0001
0.0001
0.0001
0.0001
0.0001
0.0001
0.0001
0.0001
0.0001
SCALARS Solute_Concentration_Na+ float 1
LOOKUP_TABLE default
0.000428932
0.00043073
0.000432588
0.0004344
0.000436098
0.000438786
0.000442225
0.000445836
0.000449272
0.000452458
0.000455878
0.000459208
0.000462517
0.000465937
0.000468632
0.000428932
0.00043073
0.000432588
0.0004344
0.000436098
0.000438786
0.000442225
0.000445836
0.000449272
0.000452458
0.000455878
0.000459208
0.000462517
0.000465937
0.000468632
0.000428932
0.00043073
0.000432588
0.0004344
0.000436098
0.000438786
0.000442225
0.000445836
0.000449272
0.000452458
0.000455878
0.000459208
0.000462517
0.000465937
0.000468632
0.000428932
0.00043073
0.000432588
0.0004344
0.000436098
0.000438786
0.000442225
0.000445836
0.000449272
0.000452458
0.000455878
0.000459208
0.000462517
0.000465937
0.000468632
SCALARS Solute_Concentration_SO4-- float 1
LOOKUP_TABLE default
0.000161
0.000161
0.000161
0.000161
0.000161
0.000161
0.000161
0.000161
0.000161
0.000161
0.000161
0.000161
0.000161
0.000161
0.000161
0.000161
0.000161
0.000161
0.000161
0.000161
0.000161
0.000161
0.000161
0.000161
0.000161
0.000161
0.000161
0.000161
0.000161
0.000161
0.000161
0.000161
0.000161
0.000161
0.000161
0.000161
0.000161
0.000161
0.000161
0.000161
0.000161
0.000161
0.000161
0.000161
0.000161
0.000161
0.000161
0.000161
0.000161
0.000161
0.000161
0.000161
0.000161
0.000161
0.000161
0.000161
0.000161
0.000161
0.000161
0.000161
SCALARS Solute_Concentration_SiO2(aq) float 1
LOOKUP_TABLE default
2.03017e-05
2.88766e-05
3.70441e-05
4.43254e-05
5.05245e-05
5.96054e-05
6.93382e-05
7.97699e-05
9.02986e-05
9.95322e-05
0.000110095
0.000120655
0.000130814
0.000141206
0.000149706
2.03017e-05
2.88766e-05
3.70441e-05
4.43254e-05
5.05245e-05
5.96054e-05
6.93382e-05
7.97699e-05
9.02986e-05
9.95322e-05
0.000110095
0.000120655
0.000130814
0.000141206
0.000149706
2.03017e-05
2.88766e-05
3.70441e-05
4.43254e-05
5.05245e-05
5.96054e-05
6.93382e-05
7.97699e-05
9.02986e-05
9.95322e-05
0.000110095
0.000120655
0.000130814
0.000141206
0.000149706
2.03017e-05
2.88766e-05
3.70441e-05
4.43254e-05
5.05245e-05
5.96054e-05
6.93382e-05
7.97699e-05
9.02986e-05
9.95322e-05
0.000110095
0.000120655
0.000130814
0.000141206
0.000149706
SCALARS Solute_Concentration_Sr++ float 1
LOOKUP_TABLE default
5.07e-07
5.07e-07
5.07e-07
5.07e-07
5.07e-07
5.07e-07
5.07e-07
5.07e-07
5.07e-07
5.07e-07
5.07e-07
5.07e-07
5.07e-07
5.07e-07
5.07e-07
5.07e-07
5.07e-07
5.07e-07
5.07e-07
5.07e-07
5.07e-07
5.07e-07
5.07e-07
5.07e-07
5.07e-07
5.07e-07
5.07e-07
5.07e-07
5.07e-07
5.07e-07
5.07e-07
5.07e-07
5.07e-07
5.07e-07
5.07e-07
5.07e-07
5.07e-07
5.07e-07
5.07e-07
5.07e-07
5.07e-07
5.07e-07
5.07e-07
5.07e-07
5.07e-07
5.07e-07
5.07e-07
5.07e-07
5.07e-07
5.07e-07
5.07e-07
5.07e-07
5.07e-07
5.07e-07
5.07e-07
5.07e-07
5.07e-07
5.07e-07
5.07e-07
5.07e-07
SCALARS Reaction_rates_Moles_per_L_porusmedium_per_second_Albite float 1
LOOKUP_TABLE default
1.24993e-16
1.26242e-15
7.24827e-15
1.47226e-14
3.55173e-14
5.64539e-14
7.16344e-14
7.35283e-14
6.41013e-14
6.95899e-14
6.43266e-14
5.45646e-14
6.00298e-14
5.77319e-14
6.03845e-14
1.24993e-16
1.26242e-15
7.24827e-15
1.47226e-14
3.55173e-14
5.64539e-14
7.16344e-14
7.35283e-14
6.41013e-14
6.95899e-14
6.43266e-14
5.45646e-14
6.00298e-14
5.77319e-14
6.03845e-14
1.24993e-16
1.26242e-15
7.24827e-15
1.47226e-14
3.55173e-14
5.64539e-14
7.16344e-14
7.35283e-14
6.41013e-14
6.95899e-14
6.43266e-14
5.45646e-14
6.00298e-14
5.77319e-14
6.03845e-14
1.24993e-16
1.26242e-15
7.24827e-15
1.47226e-14
3.55173e-14
5.64539e-14
7.16344e-14
7.35283e-14
6.41013e-14
6.95899e-14
6.43266e-14
5.45646e-14
6.00298e-14
5.77319e-14
6.03845e-14
SCALARS Reaction_rates_Moles_per_L_porusmedium_per_second_Quartz float 1
LOOKUP_TABLE default
-3.74274e-14
-3.59755e-14
-3.58475e-14
-3.3978e-14
-3.84667e-14
-4.86591e-14
-4.28169e-14
-4.46085e-14
-4.45025e-14
-4.21593e-14
-4.33433e-14
-3.99805e-14
-4.09584e-14
-3.8104e-14
-4.27348e-14
-3.74274e-14
-3.59755e-14
-3.58475e-14
-3.3978e-14
-3.84667e-14
-4.86591e-14
-4.28169e-14
-4.46085e-14
-4.45025e-14
-4.21593e-14
-4.33433e-14
-3.99805e-14
-4.09584e-14
-3.8104e-14
-4.27348e-14
-3.74274e-14
-3.59755e-14
-3.58475e-14
-3.3978e-14
-3.84667e-14
-4.86591e-14
-4.28169e-14
-4.46085e-14
-4.45025e-14
-4.21593e-14
-4.33433e-14
-3.99805e-14
-4.09584e-14
-3.8104e-14
-4.27348e-14
-3.74274e-14
-3.59755e-14
-3.58475e-14
-3.3978e-14
-3.84667e-14
-4.86591e-14
-4.28169e-14
-4.46085e-14
-4.45025e-14
-4.21593e-14
-4.33433e-14
-3.99805e-14
-4.09584e-14
-3.8104e-14
-4.27348e-14
SCALARS Mineral_mass_fraction_Albite float 1
LOOKUP_TABLE default
0.507445
0.515669
0.491622
0.500715
0.484484
0.502545
0.500571
0.49774
0.498586
0.496348
0.510744
0.493961
0.503255
0.498239
0.500224
0.497021
0.470569
0.491669
0.544499
0.488073
0.501103
0.502175
0.492321
0.50494
0.498675
0.497184
0.504482
0.503057
0.497478
0.500939
0.502533
0.479721
0.518619
0.511337
0.48079
0.505291
0.49621
0.499767
0.498962
0.504122
0.499534
0.498244
0.504982
0.495143
0.501865
0.516643
0.489335
0.502626
0.522917
0.467463
0.500762
0.500518
0.500284
0.5001
0.504429
0.499627
0.497493
0.499703
0.499918
0.501215
SCALARS Mineral_mass_fraction_Quartz float 1
LOOKUP_TABLE default
0.492555
0.484331
0.508378
0.499285
0.515516
0.497455
0.499429
0.50226
0.501414
0.503652
0.489256
0.506039
0.496745
0.501761
0.499776
0.502979
0.529431
0.508331
0.455501
0.511927
0.498897
0.497825
0.507679
0.49506
0.501325
0.502816
0.495518
0.496943
0.502522
0.499061
0.497467
0.520279
0.481381
0.488663
0.51921
0.494709
0.50379
0.500233
0.501038
0.495878
0.500466
0.501756
0.495018
0.504857
0.498135
0.483357
0.510665
0.497374
0.477083
0.532537
0.499238
0.499482
0.499716
0.4999
0.495571
0.500373
0.502507
0.500297
0.500082
0.498785
SCALARS Mineral_depletion_ratio_Albite float 1
LOOKUP_TABLE default
11446.8
11403
11389
11443.4
11315.7
8486.13
8631.32
9037.51
9278.66
9051.29
8555.13
9357.66
8743.16
8845.82
8767.28
10423.4
9897.63
11721.1
12447.3
9751.16
8628.75
9476.95
9282.03
8809.38
8951.5
8544.57
9286.92
8858.73
9095.55
8249.38
10909.9
10464.1
11255.4
10960.2
10003.4
8970.64
9000.54
9120.62
8991.58
8952.03
8746.37
8820.71
9412.74
8976.58
8717.01
10982.6
10984.3
10969.8
10982.1
11008.9
9074.73
9461.81
8558.99
9134.39
9098.21
8294.73
8579.78
8780.59
8948.5
8580.61
SCALARS Mineral_depletion_ratio_Quartz float 1
LOOKUP_TABLE default
10783.9
10785.9
10742.3
10727.2
10707.1
8585.76
9064.92
9119.58
9005.08
8921.65
9061.31
9760.82
8567.16
8748.54
8813.27
10918.1
11350.7
11375.4
9611.75
11206.3
8798.42
8967.75
8717.92
8435.81
8837.15
9195.88
8715.21
8646.72
8768.28
9042.99
10231.6
11303
11221.5
11191.6
11296.2
8958.44
8852.01
8439.05
8521.55
9606.24
9403.58
9076.94
8905.9
8865.35
9182.59
10898.2
10817.7
10790.6
10777.1
10808.7
8736.05
9352.14
8806.43
9046.46
8911.22
8743.73
9274.71
8279.73
9047.85
9078.66
