# vtk DataFile Version 2.0
Unstructured Grid Ptrack_cells
ASCII

DATASET UNSTRUCTURED_GRID
POINTS 80 float
0 99.9984 0.0
0 99.8984 0.0
0 99.7983 0.0
0 99.6982 0.0
0 99.5981 0.0
0 99.498 0.0
0 99.348 0.0
0 99.1981 0.0
0 99.0481 0.0
0 98.8982 0.0
0 98.7482 0.0
0 98.5983 0.0
0 98.4483 0.0
0 98.2984 0.0
0 98.1484 0.0
0 97.9984 0.0
0.1 99.9984 0.0
0.1 99.8984 0.0
0.1 99.7983 0.0
0.1 99.6982 0.0
0.1 99.5981 0.0
0.1 99.498 0.0
0.1 99.348 0.0
0.1 99.1981 0.0
0.1 99.0481 0.0
0.1 98.8982 0.0
0.1 98.7482 0.0
0.1 98.5983 0.0
0.1 98.4483 0.0
0.1 98.2984 0.0
0.1 98.1484 0.0
0.1 97.9984 0.0
0.2 99.9984 0.0
0.2 99.8984 0.0
0.2 99.7983 0.0
0.2 99.6982 0.0
0.2 99.5981 0.0
0.2 99.498 0.0
0.2 99.348 0.0
0.2 99.1981 0.0
0.2 99.0481 0.0
0.2 98.8982 0.0
0.2 98.7482 0.0
0.2 98.5983 0.0
0.2 98.4483 0.0
0.2 98.2984 0.0
0.2 98.1484 0.0
0.2 97.9984 0.0
0.3 99.9984 0.0
0.3 99.8984 0.0
0.3 99.7983 0.0
0.3 99.6982 0.0
0.3 99.5981 0.0
0.3 99.498 0.0
0.3 99.348 0.0
0.3 99.1981 0.0
0.3 99.0481 0.0
0.3 98.8982 0.0
0.3 98.7482 0.0
0.3 98.5983 0.0
0.3 98.4483 0.0
0.3 98.2984 0.0
0.3 98.1484 0.0
0.3 97.9984 0.0
0.4 99.9984 0.0
0.4 99.8984 0.0
0.4 99.7983 0.0
0.4 99.6982 0.0
0.4 99.5981 0.0
0.4 99.498 0.0
0.4 99.348 0.0
0.4 99.1981 0.0
0.4 99.0481 0.0
0.4 98.8982 0.0
0.4 98.7482 0.0
0.4 98.5983 0.0
0.4 98.4483 0.0
0.4 98.2984 0.0
0.4 98.1484 0.0
0.4 97.9984 0.0

CELLS 60 300
4 0 16 17 1
4 1 17 18 2
4 2 18 19 3
4 3 19 20 4
4 4 20 21 5
4 5 21 22 6
4 6 22 23 7
4 7 23 24 8
4 8 24 25 9
4 9 25 26 10
4 10 26 27 11
4 11 27 28 12
4 12 28 29 13
4 13 29 30 14
4 14 30 31 15
4 16 32 33 17
4 17 33 34 18
4 18 34 35 19
4 19 35 36 20
4 20 36 37 21
4 21 37 38 22
4 22 38 39 23
4 23 39 40 24
4 24 40 41 25
4 25 41 42 26
4 26 42 43 27
4 27 43 44 28
4 28 44 45 29
4 29 45 46 30
4 30 46 47 31
4 32 48 49 33
4 33 49 50 34
4 34 50 51 35
4 35 51 52 36
4 36 52 53 37
4 37 53 54 38
4 38 54 55 39
4 39 55 56 40
4 40 56 57 41
4 41 57 58 42
4 42 58 59 43
4 43 59 60 44
4 44 60 61 45
4 45 61 62 46
4 46 62 63 47
4 48 64 65 49
4 49 65 66 50
4 50 66 67 51
4 51 67 68 52
4 52 68 69 53
4 53 69 70 54
4 54 70 71 55
4 55 71 72 56
4 56 72 73 57
4 57 73 74 58
4 58 74 75 59
4 59 75 76 60
4 60 76 77 61
4 61 77 78 62
4 62 78 79 63

CELL_TYPES 60
9
9
9
9
9
9
9
9
9
9
9
9
9
9
9
9
9
9
9
9
9
9
9
9
9
9
9
9
9
9
9
9
9
9
9
9
9
9
9
9
9
9
9
9
9
9
9
9
9
9
9
9
9
9
9
9
9
9
9
9

CELL_DATA 60
SCALARS SOIL_OR_PARENT int 1
LOOKUP_TABLE default
1
1
1
1
1
0
0
0
0
0
0
0
0
0
0
1
1
1
1
1
0
0
0
0
0
0
0
0
0
0
1
1
1
1
1
0
0
0
0
0
0
0
0
0
0
1
1
1
1
1
0
0
0
0
0
0
0
0
0
0
SCALARS CELL_NUM int 1
LOOKUP_TABLE default
0
1
2
3
4
5
6
7
8
9
10
11
12
13
14
15
16
17
18
19
20
21
22
23
24
25
26
27
28
29
30
31
32
33
34
35
36
37
38
39
40
41
42
43
44
45
46
47
48
49
50
51
52
53
54
55
56
57
58
59
SCALARS Mineral_volume_percents_Albite float 1
LOOKUP_TABLE default
41457.4
38841
40045.5
42913.2
37728.5
40086.2
40350
40257.2
40191.6
40146.9
40206.5
40241.2
40297.7
40348.9
40037.2
49832
48015.2
43595.3
45772.1
43735.1
40202
40213.8
40227.1
40273.7
40141.3
40430
40094.7
40370.9
40342
39938.8
37235.1
41051.6
41153.8
40510.6
41201.1
40369
40059.4
40349
40077.2
40453.3
40080.9
40408.8
40037.1
40403
39968
45320.9
37560.5
46249
43324.2
48408.7
40219.7
40318.5
40070
40194.9
40501
39970.4
40303.9
40282.6
40226.2
40123.1
SCALARS Mineral_volume_percents_Quartz float 1
LOOKUP_TABLE default
40834.3
42562
37987.8
39930.8
39370.5
40198.3
40172.3
40179.1
40113.2
40165.7
40195.5
40331.3
39875.9
40423
39843.7
44790.2
44703.6
49796.1
46476.5
44544.7
40162
40295.2
40028.9
40273.2
40232.7
40000.8
40249.2
40071.3
40091.3
40106.4
37673.2
41354.1
35912.6
42842.3
43007.9
40252.7
40110
40181.7
40071.4
40136
40141.4
40222.3
40338
40077.4
39968.4
46123.1
38743.2
45136.7
47995.9
42513.6
40084.4
40236.3
40103.9
40384.9
39901.8
40206
40197.3
40180.2
40106.2
40041.8
SCALARS Mineral_specific_surface_area_m2perg_Albite float 1
LOOKUP_TABLE default
0.090566
0.090566
0.090566
0.090566
0.090566
0.090566
0.090566
0.090566
0.090566
0.090566
0.090566
0.090566
0.090566
0.090566
0.090566
0.090566
0.090566
0.090566
0.090566
0.090566
0.090566
0.090566
0.090566
0.090566
0.090566
0.090566
0.090566
0.090566
0.090566
0.090566
0.090566
0.090566
0.090566
0.090566
0.090566
0.090566
0.090566
0.090566
0.090566
0.090566
0.090566
0.090566
0.090566
0.090566
0.090566
0.090566
0.090566
0.090566
0.090566
0.090566
0.090566
0.090566
0.090566
0.090566
0.090566
0.090566
0.090566
0.090566
0.090566
0.090566
SCALARS Mineral_specific_surface_area_m2perg_Quartz float 1
LOOKUP_TABLE default
0.090566
0.090566
0.090566
0.090566
0.090566
0.090566
0.090566
0.090566
0.090566
0.090566
0.090566
0.090566
0.090566
0.090566
0.090566
0.090566
0.090566
0.090566
0.090566
0.090566
0.090566
0.090566
0.090566
0.090566
0.090566
0.090566
0.090566
0.090566
0.090566
0.090566
0.090566
0.090566
0.090566
0.090566
0.090566
0.090566
0.090566
0.090566
0.090566
0.090566
0.090566
0.090566
0.090566
0.090566
0.090566
0.090566
0.090566
0.090566
0.090566
0.090566
0.090566
0.090566
0.090566
0.090566
0.090566
0.090566
0.090566
0.090566
0.090566
0.090566
SCALARS Mineral_mass_kg_Albite float 1
LOOKUP_TABLE default
10996
10302
10621.5
11382.1
10006.9
15929.5
16034.4
15997.5
15971.4
15953.7
15977.4
15991.1
16013.6
16034
15910.1
13217.2
12735.4
11563
12140.4
11600.1
15975.5
15980.2
15985.5
16004.1
15951.4
16066.2
15932.9
16042.7
16031.2
15871
9876.08
10888.3
10915.5
10744.9
10928
16041.9
15918.9
16034
15925.9
16075.4
15927.4
16057.7
15910
16055.4
15882.6
12020.7
9962.37
12266.9
11491.1
12839.7
15982.6
16021.9
15923.1
15972.7
16094.4
15883.5
16016
16007.6
15985.2
15944.2
SCALARS Mineral_mass_kg_Quartz float 1
LOOKUP_TABLE default
10830.7
11289
10075.7
10591.1
10442.5
15974.1
15963.8
15966.5
15940.3
15961.1
15973
16026.9
15846
16063.4
15833.2
11880
11857
13207.7
12327.2
11814.8
15959.7
16012.6
15906.8
16003.9
15987.7
15895.6
15994.3
15923.6
15931.6
15937.6
9992.29
10968.6
9525.3
11363.3
11407.2
15995.7
15939
15967.5
15923.6
15949.3
15951.5
15983.6
16029.6
15926
15882.7
12233.5
10276.1
11971.9
12730.2
11276.1
15928.8
15989.2
15936.6
16048.3
15856.3
15977.1
15973.7
15966.9
15937.5
15911.9
SCALARS Mineral_surface_area_m2_Albite float 1
LOOKUP_TABLE default
995863
933013
961946
1.03083e+06
906290
1.44268e+06
1.45217e+06
1.44883e+06
1.44647e+06
1.44486e+06
1.44701e+06
1.44825e+06
1.45029e+06
1.45213e+06
1.44091e+06
1.19703e+06
1.15339e+06
1.04722e+06
1.09951e+06
1.05058e+06
1.44684e+06
1.44727e+06
1.44775e+06
1.44942e+06
1.44466e+06
1.45505e+06
1.44298e+06
1.45292e+06
1.45188e+06
1.43737e+06
894437
986113
988569
973120
989706
1.45285e+06
1.44171e+06
1.45214e+06
1.44235e+06
1.45589e+06
1.44249e+06
1.45429e+06
1.44091e+06
1.45408e+06
1.43842e+06
1.08867e+06
902252
1.11096e+06
1.04071e+06
1.16284e+06
1.44748e+06
1.45104e+06
1.44209e+06
1.44659e+06
1.45761e+06
1.43851e+06
1.45051e+06
1.44974e+06
1.44771e+06
1.444e+06
SCALARS Mineral_surface_area_m2_Quartz float 1
LOOKUP_TABLE default
980895
1.0224e+06
912518
959190
945733
1.44671e+06
1.44577e+06
1.44602e+06
1.44365e+06
1.44554e+06
1.44661e+06
1.4515e+06
1.43511e+06
1.4548e+06
1.43395e+06
1.07592e+06
1.07384e+06
1.19617e+06
1.11643e+06
1.07002e+06
1.44541e+06
1.4502e+06
1.44061e+06
1.44941e+06
1.44795e+06
1.4396e+06
1.44854e+06
1.44214e+06
1.44286e+06
1.4434e+06
904962
993381
862669
1.02913e+06
1.03311e+06
1.44867e+06
1.44353e+06
1.44611e+06
1.44214e+06
1.44447e+06
1.44466e+06
1.44757e+06
1.45174e+06
1.44236e+06
1.43844e+06
1.10794e+06
930663
1.08424e+06
1.15292e+06
1.02123e+06
1.44261e+06
1.44808e+06
1.44331e+06
1.45343e+06
1.43604e+06
1.44699e+06
1.44668e+06
1.44606e+06
1.44339e+06
1.44108e+06
SCALARS Solute_Concentration_Al+++ float 1
LOOKUP_TABLE default
6.13522e-06
8.5158e-06
1.03771e-05
1.14705e-05
1.16207e-05
1.10378e-05
9.28239e-06
7.55658e-06
6.36187e-06
4.69461e-06
3.68021e-06
3.22612e-06
2.59559e-06
2.25382e-06
1.72905e-06
6.13522e-06
8.5158e-06
1.03771e-05
1.14705e-05
1.16207e-05
1.10378e-05
9.28239e-06
7.55658e-06
6.36187e-06
4.69461e-06
3.68021e-06
3.22612e-06
2.59559e-06
2.25382e-06
1.72905e-06
6.13522e-06
8.5158e-06
1.03771e-05
1.14705e-05
1.16207e-05
1.10378e-05
9.28239e-06
7.55658e-06
6.36187e-06
4.69461e-06
3.68021e-06
3.22612e-06
2.59559e-06
2.25382e-06
1.72905e-06
6.13522e-06
8.5158e-06
1.03771e-05
1.14705e-05
1.16207e-05
1.10378e-05
9.28239e-06
7.55658e-06
6.36187e-06
4.69461e-06
3.68021e-06
3.22612e-06
2.59559e-06
2.25382e-06
1.72905e-06
SCALARS Solute_Concentration_CO2(aq) float 1
LOOKUP_TABLE default
0.00964234
0.0094933
0.00936644
0.00927138
0.00921234
0.00914699
0.00910561
0.00905555
0.0089879
0.00894332
0.00886696
0.00877443
0.00868895
0.00859295
0.00851923
0.00964234
0.0094933
0.00936644
0.00927138
0.00921234
0.00914699
0.00910561
0.00905555
0.0089879
0.00894332
0.00886696
0.00877443
0.00868895
0.00859295
0.00851923
0.00964234
0.0094933
0.00936644
0.00927138
0.00921234
0.00914699
0.00910561
0.00905555
0.0089879
0.00894332
0.00886696
0.00877443
0.00868895
0.00859295
0.00851923
0.00964234
0.0094933
0.00936644
0.00927138
0.00921234
0.00914699
0.00910561
0.00905555
0.0089879
0.00894332
0.00886696
0.00877443
0.00868895
0.00859295
0.00851923
SCALARS Solute_Concentration_Ca++ float 1
LOOKUP_TABLE default
9.0701e-05
9.07016e-05
9.07021e-05
9.07027e-05
9.07031e-05
9.07039e-05
9.07048e-05
9.07057e-05
9.07067e-05
9.07077e-05
9.07086e-05
9.07095e-05
9.07104e-05
9.07113e-05
9.07122e-05
9.0701e-05
9.07016e-05
9.07021e-05
9.07027e-05
9.07031e-05
9.07039e-05
9.07048e-05
9.07057e-05
9.07067e-05
9.07077e-05
9.07086e-05
9.07095e-05
9.07104e-05
9.07113e-05
9.07122e-05
9.0701e-05
9.07016e-05
9.07021e-05
9.07027e-05
9.07031e-05
9.07039e-05
9.07048e-05
9.07057e-05
9.07067e-05
9.07077e-05
9.07086e-05
9.07095e-05
9.07104e-05
9.07113e-05
9.07122e-05
9.0701e-05
9.07016e-05
9.07021e-05
9.07027e-05
9.07031e-05
9.07039e-05
9.07048e-05
9.07057e-05
9.07067e-05
9.07077e-05
9.07086e-05
9.07095e-05
9.07104e-05
9.07113e-05
9.07122e-05
SCALARS Solute_Concentration_Cl- float 1
LOOKUP_TABLE default
0.000465
0.000465
0.000465
0.000465
0.000465
0.000465
0.000465
0.000465
0.000465
0.000465
0.000465
0.000465
0.000465
0.000465
0.000465
0.000465
0.000465
0.000465
0.000465
0.000465
0.000465
0.000465
0.000465
0.000465
0.000465
0.000465
0.000465
0.000465
0.000465
0.000465
0.000465
0.000465
0.000465
0.000465
0.000465
0.000465
0.000465
0.000465
0.000465
0.000465
0.000465
0.000465
0.000465
0.000465
0.000465
0.000465
0.000465
0.000465
0.000465
0.000465
0.000465
0.000465
0.000465
0.000465
0.000465
0.000465
0.000465
0.000465
0.000465
0.000465
SCALARS Solute_Concentration_Fe++ float 1
LOOKUP_TABLE default
2.0998e-08
3.17274e-08
4.30936e-08
5.31417e-08
6.28811e-08
7.76673e-08
9.6105e-08
1.13267e-07
1.34249e-07
1.53977e-07
1.72772e-07
1.90613e-07
2.0914e-07
2.26572e-07
2.43091e-07
2.0998e-08
3.17274e-08
4.30936e-08
5.31417e-08
6.28811e-08
7.76673e-08
9.6105e-08
1.13267e-07
1.34249e-07
1.53977e-07
1.72772e-07
1.90613e-07
2.0914e-07
2.26572e-07
2.43091e-07
2.0998e-08
3.17274e-08
4.30936e-08
5.31417e-08
6.28811e-08
7.76673e-08
9.6105e-08
1.13267e-07
1.34249e-07
1.53977e-07
1.72772e-07
1.90613e-07
2.0914e-07
2.26572e-07
2.43091e-07
2.0998e-08
3.17274e-08
4.30936e-08
5.31417e-08
6.28811e-08
7.76673e-08
9.6105e-08
1.13267e-07
1.34249e-07
1.53977e-07
1.72772e-07
1.90613e-07
2.0914e-07
2.26572e-07
2.43091e-07
SCALARS Solute_Concentration_Fe+++ float 1
LOOKUP_TABLE default
8.35922e-09
1.2651e-08
1.71974e-08
2.12167e-08
2.51124e-08
3.10269e-08
3.8402e-08
4.52668e-08
5.36594e-08
6.15509e-08
6.90689e-08
7.62052e-08
8.36161e-08
9.05887e-08
9.71965e-08
8.35922e-09
1.2651e-08
1.71974e-08
2.12167e-08
2.51124e-08
3.10269e-08
3.8402e-08
4.52668e-08
5.36594e-08
6.15509e-08
6.90689e-08
7.62052e-08
8.36161e-08
9.05887e-08
9.71965e-08
8.35922e-09
1.2651e-08
1.71974e-08
2.12167e-08
2.51124e-08
3.10269e-08
3.8402e-08
4.52668e-08
5.36594e-08
6.15509e-08
6.90689e-08
7.62052e-08
8.36161e-08
9.05887e-08
9.71965e-08
8.35922e-09
1.2651e-08
1.71974e-08
2.12167e-08
2.51124e-08
3.10269e-08
3.8402e-08
4.52668e-08
5.36594e-08
6.15509e-08
6.90689e-08
7.62052e-08
8.36161e-08
9.05887e-08
9.71965e-08
SCALARS Solute_Concentration_H+ float 1
LOOKUP_TABLE default
-4.2519e-05
-5.2825e-05
-6.1633e-05
-6.80701e-05
-7.1606e-05
-7.47814e-05
-7.53747e-05
-7.63832e-05
-7.87919e-05
-7.93639e-05
-8.22268e-05
-8.6483e-05
-9.01021e-05
-9.45525e-05
-9.75938e-05
-4.2519e-05
-5.2825e-05
-6.1633e-05
-6.80701e-05
-7.1606e-05
-7.47814e-05
-7.53747e-05
-7.63832e-05
-7.87919e-05
-7.93639e-05
-8.22268e-05
-8.6483e-05
-9.01021e-05
-9.45525e-05
-9.75938e-05
-4.2519e-05
-5.2825e-05
-6.1633e-05
-6.80701e-05
-7.1606e-05
-7.47814e-05
-7.53747e-05
-7.63832e-05
-7.87919e-05
-7.93639e-05
-8.22268e-05
-8.6483e-05
-9.01021e-05
-9.45525e-05
-9.75938e-05
-4.2519e-05
-5.2825e-05
-6.1633e-05
-6.80701e-05
-7.1606e-05
-7.47814e-05
-7.53747e-05
-7.63832e-05
-7.87919e-05
-7.93639e-05
-8.22268e-05
-8.6483e-05
-9.01021e-05
-9.45525e-05
-9.75938e-05
SCALARS Solute_Concentration_K+ float 1
LOOKUP_TABLE default
1.89683e-05
2.0249e-05
2.15253e-05
2.27914e-05
2.41017e-05
2.62209e-05
2.84953e-05
3.09354e-05
3.33257e-05
3.55583e-05
3.78959e-05
4.00428e-05
4.20981e-05
4.40162e-05
4.58067e-05
1.89683e-05
2.0249e-05
2.15253e-05
2.27914e-05
2.41017e-05
2.62209e-05
2.84953e-05
3.09354e-05
3.33257e-05
3.55583e-05
3.78959e-05
4.00428e-05
4.20981e-05
4.40162e-05
4.58067e-05
1.89683e-05
2.0249e-05
2.15253e-05
2.27914e-05
2.41017e-05
2.62209e-05
2.84953e-05
3.09354e-05
3.33257e-05
3.55583e-05
3.78959e-05
4.00428e-05
4.20981e-05
4.40162e-05
4.58067e-05
1.89683e-05
2.0249e-05
2.15253e-05
2.27914e-05
2.41017e-05
2.62209e-05
2.84953e-05
3.09354e-05
3.33257e-05
3.55583e-05
3.78959e-05
4.00428e-05
4.20981e-05
4.40162e-05
4.58067e-05
SCALARS Solute_Concentration_Mg++ float 1
LOOKUP_TABLE default
6.88481e-05
6.88727e-05
6.88989e-05
6.8922e-05
6.89444e-05
6.89784e-05
6.90208e-05
6.90603e-05
6.91085e-05
6.91539e-05
6.91972e-05
6.92382e-05
6.92808e-05
6.93209e-05
6.93589e-05
6.88481e-05
6.88727e-05
6.88989e-05
6.8922e-05
6.89444e-05
6.89784e-05
6.90208e-05
6.90603e-05
6.91085e-05
6.91539e-05
6.91972e-05
6.92382e-05
6.92808e-05
6.93209e-05
6.93589e-05
6.88481e-05
6.88727e-05
6.88989e-05
6.8922e-05
6.89444e-05
6.89784e-05
6.90208e-05
6.90603e-05
6.91085e-05
6.91539e-05
6.91972e-05
6.92382e-05
6.92808e-05
6.93209e-05
6.93589e-05
6.88481e-05
6.88727e-05
6.88989e-05
6.8922e-05
6.89444e-05
6.89784e-05
6.90208e-05
6.90603e-05
6.91085e-05
6.91539e-05
6.91972e-05
6.92382e-05
6.92808e-05
6.93209e-05
6.93589e-05
SCALARS Solute_Concentration_NO3- float 1
LOOKUP_TABLE default
0.0001
0.0001
0.0001
0.0001
0.0001
0.0001
0.0001
0.0001
0.0001
0.0001
0.0001
0.0001
0.0001
0.0001
0.0001
0.0001
0.0001
0.0001
0.0001
0.0001
0.0001
0.0001
0.0001
0.0001
0.0001
0.0001
0.0001
0.0001
0.0001
0.0001
0.0001
0.0001
0.0001
0.0001
0.0001
0.0001
0.0001
0.0001
0.0001
0.0001
0.0001
0.0001
0.0001
0.0001
0.0001
0.0001
0.0001
0.0001
0.0001
0.0001
0.0001
0.0001
0.0001
0.0001
0.0001
0.0001
0.0001
0.0001
0.0001
0.0001
SCALARS Solute_Concentration_Na+ float 1
LOOKUP_TABLE default
0.000428932
0.00043073
0.000432588
0.0004344
0.000436098
0.000438786
0.000442225
0.000445836
0.000449272
0.000452458
0.000455878
0.000459208
0.000462517
0.000465937
0.000468632
0.000428932
0.00043073
0.000432588
0.0004344
0.000436098
0.000438786
0.000442225
0.000445836
0.000449272
0.000452458
0.000455878
0.000459208
0.000462517
0.000465937
0.000468632
0.000428932
0.00043073
0.000432588
0.0004344
0.000436098
0.000438786
0.000442225
0.000445836
0.000449272
0.000452458
0.000455878
0.000459208
0.000462517
0.000465937
0.000468632
0.000428932
0.00043073
0.000432588
0.0004344
0.000436098
0.000438786
0.000442225
0.000445836
0.000449272
0.000452458
0.000455878
0.000459208
0.000462517
0.000465937
0.000468632
SCALARS Solute_Concentration_SO4-- float 1
LOOKUP_TABLE default
0.000161
0.000161
0.000161
0.000161
0.000161
0.000161
0.000161
0.000161
0.000161
0.000161
0.000161
0.000161
0.000161
0.000161
0.000161
0.000161
0.000161
0.000161
0.000161
0.000161
0.000161
0.000161
0.000161
0.000161
0.000161
0.000161
0.000161
0.000161
0.000161
0.000161
0.000161
0.000161
0.000161
0.000161
0.000161
0.000161
0.000161
0.000161
0.000161
0.000161
0.000161
0.000161
0.000161
0.000161
0.000161
0.000161
0.000161
0.000161
0.000161
0.000161
0.000161
0.000161
0.000161
0.000161
0.000161
0.000161
0.000161
0.000161
0.000161
0.000161
SCALARS Solute_Concentration_SiO2(aq) float 1
LOOKUP_TABLE default
2.03017e-05
2.88766e-05
3.70441e-05
4.43254e-05
5.05245e-05
5.96054e-05
6.93382e-05
7.97699e-05
9.02986e-05
9.95322e-05
0.000110095
0.000120655
0.000130814
0.000141206
0.000149706
2.03017e-05
2.88766e-05
3.70441e-05
4.43254e-05
5.05245e-05
5.96054e-05
6.93382e-05
7.97699e-05
9.02986e-05
9.95322e-05
0.000110095
0.000120655
0.000130814
0.000141206
0.000149706
2.03017e-05
2.88766e-05
3.70441e-05
4.43254e-05
5.05245e-05
5.96054e-05
6.93382e-05
7.97699e-05
9.02986e-05
9.95322e-05
0.000110095
0.000120655
0.000130814
0.000141206
0.000149706
2.03017e-05
2.88766e-05
3.70441e-05
4.43254e-05
5.05245e-05
5.96054e-05
6.93382e-05
7.97699e-05
9.02986e-05
9.95322e-05
0.000110095
0.000120655
0.000130814
0.000141206
0.000149706
SCALARS Solute_Concentration_Sr++ float 1
LOOKUP_TABLE default
5.07e-07
5.07e-07
5.07e-07
5.07e-07
5.07e-07
5.07e-07
5.07e-07
5.07e-07
5.07e-07
5.07e-07
5.07e-07
5.07e-07
5.07e-07
5.07e-07
5.07e-07
5.07e-07
5.07e-07
5.07e-07
5.07e-07
5.07e-07
5.07e-07
5.07e-07
5.07e-07
5.07e-07
5.07e-07
5.07e-07
5.07e-07
5.07e-07
5.07e-07
5.07e-07
5.07e-07
5.07e-07
5.07e-07
5.07e-07
5.07e-07
5.07e-07
5.07e-07
5.07e-07
5.07e-07
5.07e-07
5.07e-07
5.07e-07
5.07e-07
5.07e-07
5.07e-07
5.07e-07
5.07e-07
5.07e-07
5.07e-07
5.07e-07
5.07e-07
5.07e-07
5.07e-07
5.07e-07
5.07e-07
5.07e-07
5.07e-07
5.07e-07
5.07e-07
5.07e-07
SCALARS Reaction_rates_Moles_per_L_porusmedium_per_second_Albite float 1
LOOKUP_TABLE default
1.24993e-16
1.26242e-15
7.24827e-15
1.47226e-14
3.55173e-14
5.64539e-14
7.16344e-14
7.35283e-14
6.41013e-14
6.95899e-14
6.43266e-14
5.45646e-14
6.00298e-14
5.77319e-14
6.03845e-14
1.24993e-16
1.26242e-15
7.24827e-15
1.47226e-14
3.55173e-14
5.64539e-14
7.16344e-14
7.35283e-14
6.41013e-14
6.95899e-14
6.43266e-14
5.45646e-14
6.00298e-14
5.77319e-14
6.03845e-14
1.24993e-16
1.26242e-15
7.24827e-15
1.47226e-14
3.55173e-14
5.64539e-14
7.16344e-14
7.35283e-14
6.41013e-14
6.95899e-14
6.43266e-14
5.45646e-14
6.00298e-14
5.77319e-14
6.03845e-14
1.24993e-16
1.26242e-15
7.24827e-15
1.47226e-14
3.55173e-14
5.64539e-14
7.16344e-14
7.35283e-14
6.41013e-14
6.95899e-14
6.43266e-14
5.45646e-14
6.00298e-14
5.77319e-14
6.03845e-14
SCALARS Reaction_rates_Moles_per_L_porusmedium_per_second_Quartz float 1
LOOKUP_TABLE default
-3.74274e-14
-3.59755e-14
-3.58475e-14
-3.3978e-14
-3.84667e-14
-4.86591e-14
-4.28169e-14
-4.46085e-14
-4.45025e-14
-4.21593e-14
-4.33433e-14
-3.99805e-14
-4.09584e-14
-3.8104e-14
-4.27348e-14
-3.74274e-14
-3.59755e-14
-3.58475e-14
-3.3978e-14
-3.84667e-14
-4.86591e-14
-4.28169e-14
-4.46085e-14
-4.45025e-14
-4.21593e-14
-4.33433e-14
-3.99805e-14
-4.09584e-14
-3.8104e-14
-4.27348e-14
-3.74274e-14
-3.59755e-14
-3.58475e-14
-3.3978e-14
-3.84667e-14
-4.86591e-14
-4.28169e-14
-4.46085e-14
-4.45025e-14
-4.21593e-14
-4.33433e-14
-3.99805e-14
-4.09584e-14
-3.8104e-14
-4.27348e-14
-3.74274e-14
-3.59755e-14
-3.58475e-14
-3.3978e-14
-3.84667e-14
-4.86591e-14
-4.28169e-14
-4.46085e-14
-4.45025e-14
-4.21593e-14
-4.33433e-14
-3.99805e-14
-4.09584e-14
-3.8104e-14
-4.27348e-14
SCALARS Mineral_mass_fraction_Albite float 1
LOOKUP_TABLE default
0.503092
0.481692
0.510535
0.51454
0.491586
0.499497
0.500931
0.500439
0.500444
0.499951
0.500103
0.499602
0.502155
0.499682
0.501023
0.522036
0.51473
0.472687
0.496897
0.496299
0.500255
0.499641
0.501039
0.500055
0.49959
0.502185
0.499281
0.50154
0.501298
0.499217
0.49774
0.498564
0.52704
0.488757
0.491369
0.500634
0.499794
0.500882
0.500082
0.501623
0.499746
0.500977
0.49855
0.50167
0.500053
0.496442
0.493903
0.505027
0.47905
0.526614
0.500731
0.500456
0.499881
0.499107
0.50303
0.498872
0.500581
0.500559
0.500648
0.50046
SCALARS Mineral_mass_fraction_Quartz float 1
LOOKUP_TABLE default
0.496908
0.518308
0.489465
0.48546
0.508414
0.500503
0.499069
0.499561
0.499556
0.500049
0.499897
0.500398
0.497845
0.500318
0.498977
0.477964
0.48527
0.527313
0.503103
0.503701
0.499745
0.500359
0.498961
0.499945
0.50041
0.497815
0.500719
0.49846
0.498702
0.500783
0.50226
0.501436
0.47296
0.511243
0.508631
0.499366
0.500206
0.499118
0.499918
0.498377
0.500254
0.499023
0.50145
0.49833
0.499947
0.503558
0.506097
0.494973
0.52095
0.473386
0.499269
0.499544
0.500119
0.500893
0.49697
0.501128
0.499419
0.499441
0.499352
0.49954
SCALARS Mineral_depletion_ratio_Albite float 1
LOOKUP_TABLE default
1427.08
1448.2
1444.23
1415.91
1450.2
1266.65
1162.19
1256.95
1211.41
1258.14
1217.3
1237.06
1225.14
1186.33
1151.59
1683.95
1713.88
1717.26
1679.93
1765.4
1179.37
1174.41
1179.94
1179.31
1147.33
1206.13
1190.95
1185.08
1243.41
1212.65
1429.28
1409.1
1405.91
1403.8
1404.22
1251.87
1274.08
1163.86
1167.79
1240.34
1260.47
1205.65
1335.64
1299.52
1182.59
1523.79
1598.96
1652.85
1548.52
1726.35
1169.39
1192.69
1305.77
1205.98
1148.95
1213.42
1109.48
1209.91
1208.56
1207.88
SCALARS Mineral_depletion_ratio_Quartz float 1
LOOKUP_TABLE default
1528.07
1520.07
1558.22
1541.48
1544.17
1300.29
1227.5
1187.37
1111.22
1171.34
1146.71
1237.11
1239.35
1180.83
1240.44
1642.43
1681.8
1704.93
1654.74
1580.96
1234.83
1211.82
1277.15
1184.3
1221.44
1148.87
1235.09
1329.58
1126.49
1159.66
1517.53
1490.28
1527.38
1486.15
1478.64
1189.1
1239.36
1207.24
1274.14
1269.68
1224.84
1217.46
1214.69
1188.52
1189.44
1584.21
1446.14
1608.17
1669.08
1566.86
1169.41
1230.97
1239.19
1223.27
1284.24
1191.56
1218.71
1166.52
1178.62
1182.32
