# vtk DataFile Version 2.0
Unstructured Grid Ptrack_cells
ASCII

DATASET UNSTRUCTURED_GRID
POINTS 80 float
0 99.9825 0.0
0 99.8815 0.0
0 99.7805 0.0
0 99.6795 0.0
0 99.5785 0.0
0 99.4775 0.0
0 99.328 0.0
0 99.1785 0.0
0 99.029 0.0
0 98.8795 0.0
0 98.73 0.0
0 98.5805 0.0
0 98.431 0.0
0 98.2815 0.0
0 98.132 0.0
0 97.9825 0.0
0.1 99.9825 0.0
0.1 99.8815 0.0
0.1 99.7805 0.0
0.1 99.6795 0.0
0.1 99.5785 0.0
0.1 99.4775 0.0
0.1 99.328 0.0
0.1 99.1785 0.0
0.1 99.029 0.0
0.1 98.8795 0.0
0.1 98.73 0.0
0.1 98.5805 0.0
0.1 98.431 0.0
0.1 98.2815 0.0
0.1 98.132 0.0
0.1 97.9825 0.0
0.2 99.9825 0.0
0.2 99.8815 0.0
0.2 99.7805 0.0
0.2 99.6795 0.0
0.2 99.5785 0.0
0.2 99.4775 0.0
0.2 99.328 0.0
0.2 99.1785 0.0
0.2 99.029 0.0
0.2 98.8795 0.0
0.2 98.73 0.0
0.2 98.5805 0.0
0.2 98.431 0.0
0.2 98.2815 0.0
0.2 98.132 0.0
0.2 97.9825 0.0
0.3 99.9825 0.0
0.3 99.8815 0.0
0.3 99.7805 0.0
0.3 99.6795 0.0
0.3 99.5785 0.0
0.3 99.4775 0.0
0.3 99.328 0.0
0.3 99.1785 0.0
0.3 99.029 0.0
0.3 98.8795 0.0
0.3 98.73 0.0
0.3 98.5805 0.0
0.3 98.431 0.0
0.3 98.2815 0.0
0.3 98.132 0.0
0.3 97.9825 0.0
0.4 99.9825 0.0
0.4 99.8815 0.0
0.4 99.7805 0.0
0.4 99.6795 0.0
0.4 99.5785 0.0
0.4 99.4775 0.0
0.4 99.328 0.0
0.4 99.1785 0.0
0.4 99.029 0.0
0.4 98.8795 0.0
0.4 98.73 0.0
0.4 98.5805 0.0
0.4 98.431 0.0
0.4 98.2815 0.0
0.4 98.132 0.0
0.4 97.9825 0.0

CELLS 60 300
4 0 16 17 1
4 1 17 18 2
4 2 18 19 3
4 3 19 20 4
4 4 20 21 5
4 5 21 22 6
4 6 22 23 7
4 7 23 24 8
4 8 24 25 9
4 9 25 26 10
4 10 26 27 11
4 11 27 28 12
4 12 28 29 13
4 13 29 30 14
4 14 30 31 15
4 16 32 33 17
4 17 33 34 18
4 18 34 35 19
4 19 35 36 20
4 20 36 37 21
4 21 37 38 22
4 22 38 39 23
4 23 39 40 24
4 24 40 41 25
4 25 41 42 26
4 26 42 43 27
4 27 43 44 28
4 28 44 45 29
4 29 45 46 30
4 30 46 47 31
4 32 48 49 33
4 33 49 50 34
4 34 50 51 35
4 35 51 52 36
4 36 52 53 37
4 37 53 54 38
4 38 54 55 39
4 39 55 56 40
4 40 56 57 41
4 41 57 58 42
4 42 58 59 43
4 43 59 60 44
4 44 60 61 45
4 45 61 62 46
4 46 62 63 47
4 48 64 65 49
4 49 65 66 50
4 50 66 67 51
4 51 67 68 52
4 52 68 69 53
4 53 69 70 54
4 54 70 71 55
4 55 71 72 56
4 56 72 73 57
4 57 73 74 58
4 58 74 75 59
4 59 75 76 60
4 60 76 77 61
4 61 77 78 62
4 62 78 79 63

CELL_TYPES 60
9
9
9
9
9
9
9
9
9
9
9
9
9
9
9
9
9
9
9
9
9
9
9
9
9
9
9
9
9
9
9
9
9
9
9
9
9
9
9
9
9
9
9
9
9
9
9
9
9
9
9
9
9
9
9
9
9
9
9
9

CELL_DATA 60
SCALARS SOIL_OR_PARENT int 1
LOOKUP_TABLE default
1
1
1
1
1
0
0
0
0
0
0
0
0
0
0
1
1
1
1
1
0
0
0
0
0
0
0
0
0
0
1
1
1
1
1
0
0
0
0
0
0
0
0
0
0
1
1
1
1
1
0
0
0
0
0
0
0
0
0
0
SCALARS CELL_NUM int 1
LOOKUP_TABLE default
0
1
2
3
4
5
6
7
8
9
10
11
12
13
14
15
16
17
18
19
20
21
22
23
24
25
26
27
28
29
30
31
32
33
34
35
36
37
38
39
40
41
42
43
44
45
46
47
48
49
50
51
52
53
54
55
56
57
58
59
SCALARS Mineral_volume_percents_Albite float 1
LOOKUP_TABLE default
865541
870173
763454
912883
888700
855900
851839
869199
854277
867161
865056
839099
872662
858574
809656
924941
843896
799941
822290
940648
847194
875760
854000
868044
863789
852867
859822
851249
867544
808837
883159
862104
944204
796986
837198
853232
860632
867843
860957
860229
858464
860791
873165
845197
811644
848383
923051
862800
875929
802833
861012
861565
854597
856760
861385
868083
855996
847297
877784
803880
SCALARS Mineral_volume_percents_Quartz float 1
LOOKUP_TABLE default
883011
838360
877770
862512
851870
857382
854140
862777
853777
872081
841392
887973
844461
853317
810072
988342
744416
849683
972857
747198
864791
845327
863004
851342
864347
858023
861595
873738
855513
798655
905785
830539
841274
877531
869115
852258
869118
859423
858870
855040
846359
867693
864417
873788
793416
827552
908404
803113
891317
858453
878357
850744
861238
858326
859587
847903
866193
863321
861210
809634
SCALARS Mineral_specific_surface_area_m2perg_Albite float 1
LOOKUP_TABLE default
0.090566
0.090566
0.090566
0.090566
0.090566
0.090566
0.090566
0.090566
0.090566
0.090566
0.090566
0.090566
0.090566
0.090566
0.090566
0.090566
0.090566
0.090566
0.090566
0.090566
0.090566
0.090566
0.090566
0.090566
0.090566
0.090566
0.090566
0.090566
0.090566
0.090566
0.090566
0.090566
0.090566
0.090566
0.090566
0.090566
0.090566
0.090566
0.090566
0.090566
0.090566
0.090566
0.090566
0.090566
0.090566
0.090566
0.090566
0.090566
0.090566
0.090566
0.090566
0.090566
0.090566
0.090566
0.090566
0.090566
0.090566
0.090566
0.090566
0.090566
SCALARS Mineral_specific_surface_area_m2perg_Quartz float 1
LOOKUP_TABLE default
0.090566
0.090566
0.090566
0.090566
0.090566
0.090566
0.090566
0.090566
0.090566
0.090566
0.090566
0.090566
0.090566
0.090566
0.090566
0.090566
0.090566
0.090566
0.090566
0.090566
0.090566
0.090566
0.090566
0.090566
0.090566
0.090566
0.090566
0.090566
0.090566
0.090566
0.090566
0.090566
0.090566
0.090566
0.090566
0.090566
0.090566
0.090566
0.090566
0.090566
0.090566
0.090566
0.090566
0.090566
0.090566
0.090566
0.090566
0.090566
0.090566
0.090566
0.090566
0.090566
0.090566
0.090566
0.090566
0.090566
0.090566
0.090566
0.090566
0.090566
SCALARS Mineral_mass_kg_Albite float 1
LOOKUP_TABLE default
231662
232902
204339
244333
237860
339086
337477
344355
338443
343547
342714
332430
345727
340145
320765
247560
225869
214104
220086
251764
335637
346954
338334
343897
342212
337885
340640
337244
343699
320441
236377
230742
252716
213313
224076
338029
340961
343818
341089
340801
340102
341024
345926
334846
321553
227070
247055
230929
234442
214878
341111
341331
338570
339427
341259
343913
339124
335678
347756
318477
SCALARS Mineral_mass_kg_Quartz float 1
LOOKUP_TABLE default
236338
224387
234935
230851
228003
339673
338389
341811
338245
345497
333338
351793
334554
338063
320930
264530
199243
227418
260385
199988
342609
334897
341901
337281
342433
339927
341342
346153
338933
316407
242433
222294
225167
234871
232619
337644
344323
340482
340263
338745
335306
343758
342460
346173
314331
221494
243134
214953
238561
229765
347983
337044
341201
340047
340547
335918
343164
342026
341190
320757
SCALARS Mineral_surface_area_m2_Albite float 1
LOOKUP_TABLE default
2.09807e+07
2.1093e+07
1.85061e+07
2.21283e+07
2.15421e+07
3.07097e+07
3.0564e+07
3.11869e+07
3.06515e+07
3.11137e+07
3.10382e+07
3.01069e+07
3.13111e+07
3.08056e+07
2.90504e+07
2.24206e+07
2.0456e+07
1.93906e+07
1.99323e+07
2.28013e+07
3.03973e+07
3.14223e+07
3.06415e+07
3.11454e+07
3.09927e+07
3.06009e+07
3.08504e+07
3.05428e+07
3.11275e+07
2.90211e+07
2.14078e+07
2.08974e+07
2.28875e+07
1.93189e+07
2.02937e+07
3.0614e+07
3.08795e+07
3.11382e+07
3.08911e+07
3.0865e+07
3.08017e+07
3.08852e+07
3.13291e+07
3.03257e+07
2.91218e+07
2.05648e+07
2.23748e+07
2.09143e+07
2.12325e+07
1.94607e+07
3.08931e+07
3.0913e+07
3.06629e+07
3.07406e+07
3.09065e+07
3.11468e+07
3.07132e+07
3.0401e+07
3.14949e+07
2.88432e+07
SCALARS Mineral_surface_area_m2_Quartz float 1
LOOKUP_TABLE default
2.14042e+07
2.03219e+07
2.12772e+07
2.09073e+07
2.06493e+07
3.07629e+07
3.06465e+07
3.09565e+07
3.06335e+07
3.12903e+07
3.01891e+07
3.18605e+07
3.02993e+07
3.0617e+07
2.90654e+07
2.39574e+07
1.80447e+07
2.05963e+07
2.3582e+07
1.81121e+07
3.10287e+07
3.03303e+07
3.09646e+07
3.05462e+07
3.10128e+07
3.07859e+07
3.0914e+07
3.13497e+07
3.06958e+07
2.86557e+07
2.19562e+07
2.01323e+07
2.03925e+07
2.12713e+07
2.10674e+07
3.0579e+07
3.1184e+07
3.08361e+07
3.08163e+07
3.06788e+07
3.03674e+07
3.11328e+07
3.10153e+07
3.13515e+07
2.84678e+07
2.00599e+07
2.20197e+07
1.94675e+07
2.16055e+07
2.08089e+07
3.15155e+07
3.05247e+07
3.09012e+07
3.07967e+07
3.0842e+07
3.04228e+07
3.1079e+07
3.09759e+07
3.09002e+07
2.90497e+07
SCALARS Solute_Concentration_Al+++ float 1
LOOKUP_TABLE default
6.13522e-06
8.5158e-06
1.03771e-05
1.14705e-05
1.16207e-05
1.10378e-05
9.28239e-06
7.55658e-06
6.36187e-06
4.69461e-06
3.68021e-06
3.22612e-06
2.59559e-06
2.25382e-06
1.72905e-06
6.13522e-06
8.5158e-06
1.03771e-05
1.14705e-05
1.16207e-05
1.10378e-05
9.28239e-06
7.55658e-06
6.36187e-06
4.69461e-06
3.68021e-06
3.22612e-06
2.59559e-06
2.25382e-06
1.72905e-06
6.13522e-06
8.5158e-06
1.03771e-05
1.14705e-05
1.16207e-05
1.10378e-05
9.28239e-06
7.55658e-06
6.36187e-06
4.69461e-06
3.68021e-06
3.22612e-06
2.59559e-06
2.25382e-06
1.72905e-06
6.13522e-06
8.5158e-06
1.03771e-05
1.14705e-05
1.16207e-05
1.10378e-05
9.28239e-06
7.55658e-06
6.36187e-06
4.69461e-06
3.68021e-06
3.22612e-06
2.59559e-06
2.25382e-06
1.72905e-06
SCALARS Solute_Concentration_CO2(aq) float 1
LOOKUP_TABLE default
0.00964234
0.0094933
0.00936644
0.00927138
0.00921234
0.00914699
0.00910561
0.00905555
0.0089879
0.00894332
0.00886696
0.00877443
0.00868895
0.00859295
0.00851923
0.00964234
0.0094933
0.00936644
0.00927138
0.00921234
0.00914699
0.00910561
0.00905555
0.0089879
0.00894332
0.00886696
0.00877443
0.00868895
0.00859295
0.00851923
0.00964234
0.0094933
0.00936644
0.00927138
0.00921234
0.00914699
0.00910561
0.00905555
0.0089879
0.00894332
0.00886696
0.00877443
0.00868895
0.00859295
0.00851923
0.00964234
0.0094933
0.00936644
0.00927138
0.00921234
0.00914699
0.00910561
0.00905555
0.0089879
0.00894332
0.00886696
0.00877443
0.00868895
0.00859295
0.00851923
SCALARS Solute_Concentration_Ca++ float 1
LOOKUP_TABLE default
9.0701e-05
9.07016e-05
9.07021e-05
9.07027e-05
9.07031e-05
9.07039e-05
9.07048e-05
9.07057e-05
9.07067e-05
9.07077e-05
9.07086e-05
9.07095e-05
9.07104e-05
9.07113e-05
9.07122e-05
9.0701e-05
9.07016e-05
9.07021e-05
9.07027e-05
9.07031e-05
9.07039e-05
9.07048e-05
9.07057e-05
9.07067e-05
9.07077e-05
9.07086e-05
9.07095e-05
9.07104e-05
9.07113e-05
9.07122e-05
9.0701e-05
9.07016e-05
9.07021e-05
9.07027e-05
9.07031e-05
9.07039e-05
9.07048e-05
9.07057e-05
9.07067e-05
9.07077e-05
9.07086e-05
9.07095e-05
9.07104e-05
9.07113e-05
9.07122e-05
9.0701e-05
9.07016e-05
9.07021e-05
9.07027e-05
9.07031e-05
9.07039e-05
9.07048e-05
9.07057e-05
9.07067e-05
9.07077e-05
9.07086e-05
9.07095e-05
9.07104e-05
9.07113e-05
9.07122e-05
SCALARS Solute_Concentration_Cl- float 1
LOOKUP_TABLE default
0.000465
0.000465
0.000465
0.000465
0.000465
0.000465
0.000465
0.000465
0.000465
0.000465
0.000465
0.000465
0.000465
0.000465
0.000465
0.000465
0.000465
0.000465
0.000465
0.000465
0.000465
0.000465
0.000465
0.000465
0.000465
0.000465
0.000465
0.000465
0.000465
0.000465
0.000465
0.000465
0.000465
0.000465
0.000465
0.000465
0.000465
0.000465
0.000465
0.000465
0.000465
0.000465
0.000465
0.000465
0.000465
0.000465
0.000465
0.000465
0.000465
0.000465
0.000465
0.000465
0.000465
0.000465
0.000465
0.000465
0.000465
0.000465
0.000465
0.000465
SCALARS Solute_Concentration_Fe++ float 1
LOOKUP_TABLE default
2.0998e-08
3.17274e-08
4.30936e-08
5.31417e-08
6.28811e-08
7.76673e-08
9.6105e-08
1.13267e-07
1.34249e-07
1.53977e-07
1.72772e-07
1.90613e-07
2.0914e-07
2.26572e-07
2.43091e-07
2.0998e-08
3.17274e-08
4.30936e-08
5.31417e-08
6.28811e-08
7.76673e-08
9.6105e-08
1.13267e-07
1.34249e-07
1.53977e-07
1.72772e-07
1.90613e-07
2.0914e-07
2.26572e-07
2.43091e-07
2.0998e-08
3.17274e-08
4.30936e-08
5.31417e-08
6.28811e-08
7.76673e-08
9.6105e-08
1.13267e-07
1.34249e-07
1.53977e-07
1.72772e-07
1.90613e-07
2.0914e-07
2.26572e-07
2.43091e-07
2.0998e-08
3.17274e-08
4.30936e-08
5.31417e-08
6.28811e-08
7.76673e-08
9.6105e-08
1.13267e-07
1.34249e-07
1.53977e-07
1.72772e-07
1.90613e-07
2.0914e-07
2.26572e-07
2.43091e-07
SCALARS Solute_Concentration_Fe+++ float 1
LOOKUP_TABLE default
8.35922e-09
1.2651e-08
1.71974e-08
2.12167e-08
2.51124e-08
3.10269e-08
3.8402e-08
4.52668e-08
5.36594e-08
6.15509e-08
6.90689e-08
7.62052e-08
8.36161e-08
9.05887e-08
9.71965e-08
8.35922e-09
1.2651e-08
1.71974e-08
2.12167e-08
2.51124e-08
3.10269e-08
3.8402e-08
4.52668e-08
5.36594e-08
6.15509e-08
6.90689e-08
7.62052e-08
8.36161e-08
9.05887e-08
9.71965e-08
8.35922e-09
1.2651e-08
1.71974e-08
2.12167e-08
2.51124e-08
3.10269e-08
3.8402e-08
4.52668e-08
5.36594e-08
6.15509e-08
6.90689e-08
7.62052e-08
8.36161e-08
9.05887e-08
9.71965e-08
8.35922e-09
1.2651e-08
1.71974e-08
2.12167e-08
2.51124e-08
3.10269e-08
3.8402e-08
4.52668e-08
5.36594e-08
6.15509e-08
6.90689e-08
7.62052e-08
8.36161e-08
9.05887e-08
9.71965e-08
SCALARS Solute_Concentration_H+ float 1
LOOKUP_TABLE default
-4.2519e-05
-5.2825e-05
-6.1633e-05
-6.80701e-05
-7.1606e-05
-7.47814e-05
-7.53747e-05
-7.63832e-05
-7.87919e-05
-7.93639e-05
-8.22268e-05
-8.6483e-05
-9.01021e-05
-9.45525e-05
-9.75938e-05
-4.2519e-05
-5.2825e-05
-6.1633e-05
-6.80701e-05
-7.1606e-05
-7.47814e-05
-7.53747e-05
-7.63832e-05
-7.87919e-05
-7.93639e-05
-8.22268e-05
-8.6483e-05
-9.01021e-05
-9.45525e-05
-9.75938e-05
-4.2519e-05
-5.2825e-05
-6.1633e-05
-6.80701e-05
-7.1606e-05
-7.47814e-05
-7.53747e-05
-7.63832e-05
-7.87919e-05
-7.93639e-05
-8.22268e-05
-8.6483e-05
-9.01021e-05
-9.45525e-05
-9.75938e-05
-4.2519e-05
-5.2825e-05
-6.1633e-05
-6.80701e-05
-7.1606e-05
-7.47814e-05
-7.53747e-05
-7.63832e-05
-7.87919e-05
-7.93639e-05
-8.22268e-05
-8.6483e-05
-9.01021e-05
-9.45525e-05
-9.75938e-05
SCALARS Solute_Concentration_K+ float 1
LOOKUP_TABLE default
1.89683e-05
2.0249e-05
2.15253e-05
2.27914e-05
2.41017e-05
2.62209e-05
2.84953e-05
3.09354e-05
3.33257e-05
3.55583e-05
3.78959e-05
4.00428e-05
4.20981e-05
4.40162e-05
4.58067e-05
1.89683e-05
2.0249e-05
2.15253e-05
2.27914e-05
2.41017e-05
2.62209e-05
2.84953e-05
3.09354e-05
3.33257e-05
3.55583e-05
3.78959e-05
4.00428e-05
4.20981e-05
4.40162e-05
4.58067e-05
1.89683e-05
2.0249e-05
2.15253e-05
2.27914e-05
2.41017e-05
2.62209e-05
2.84953e-05
3.09354e-05
3.33257e-05
3.55583e-05
3.78959e-05
4.00428e-05
4.20981e-05
4.40162e-05
4.58067e-05
1.89683e-05
2.0249e-05
2.15253e-05
2.27914e-05
2.41017e-05
2.62209e-05
2.84953e-05
3.09354e-05
3.33257e-05
3.55583e-05
3.78959e-05
4.00428e-05
4.20981e-05
4.40162e-05
4.58067e-05
SCALARS Solute_Concentration_Mg++ float 1
LOOKUP_TABLE default
6.88481e-05
6.88727e-05
6.88989e-05
6.8922e-05
6.89444e-05
6.89784e-05
6.90208e-05
6.90603e-05
6.91085e-05
6.91539e-05
6.91972e-05
6.92382e-05
6.92808e-05
6.93209e-05
6.93589e-05
6.88481e-05
6.88727e-05
6.88989e-05
6.8922e-05
6.89444e-05
6.89784e-05
6.90208e-05
6.90603e-05
6.91085e-05
6.91539e-05
6.91972e-05
6.92382e-05
6.92808e-05
6.93209e-05
6.93589e-05
6.88481e-05
6.88727e-05
6.88989e-05
6.8922e-05
6.89444e-05
6.89784e-05
6.90208e-05
6.90603e-05
6.91085e-05
6.91539e-05
6.91972e-05
6.92382e-05
6.92808e-05
6.93209e-05
6.93589e-05
6.88481e-05
6.88727e-05
6.88989e-05
6.8922e-05
6.89444e-05
6.89784e-05
6.90208e-05
6.90603e-05
6.91085e-05
6.91539e-05
6.91972e-05
6.92382e-05
6.92808e-05
6.93209e-05
6.93589e-05
SCALARS Solute_Concentration_NO3- float 1
LOOKUP_TABLE default
0.0001
0.0001
0.0001
0.0001
0.0001
0.0001
0.0001
0.0001
0.0001
0.0001
0.0001
0.0001
0.0001
0.0001
0.0001
0.0001
0.0001
0.0001
0.0001
0.0001
0.0001
0.0001
0.0001
0.0001
0.0001
0.0001
0.0001
0.0001
0.0001
0.0001
0.0001
0.0001
0.0001
0.0001
0.0001
0.0001
0.0001
0.0001
0.0001
0.0001
0.0001
0.0001
0.0001
0.0001
0.0001
0.0001
0.0001
0.0001
0.0001
0.0001
0.0001
0.0001
0.0001
0.0001
0.0001
0.0001
0.0001
0.0001
0.0001
0.0001
SCALARS Solute_Concentration_Na+ float 1
LOOKUP_TABLE default
0.000428932
0.00043073
0.000432588
0.0004344
0.000436098
0.000438786
0.000442225
0.000445836
0.000449272
0.000452458
0.000455878
0.000459208
0.000462517
0.000465937
0.000468632
0.000428932
0.00043073
0.000432588
0.0004344
0.000436098
0.000438786
0.000442225
0.000445836
0.000449272
0.000452458
0.000455878
0.000459208
0.000462517
0.000465937
0.000468632
0.000428932
0.00043073
0.000432588
0.0004344
0.000436098
0.000438786
0.000442225
0.000445836
0.000449272
0.000452458
0.000455878
0.000459208
0.000462517
0.000465937
0.000468632
0.000428932
0.00043073
0.000432588
0.0004344
0.000436098
0.000438786
0.000442225
0.000445836
0.000449272
0.000452458
0.000455878
0.000459208
0.000462517
0.000465937
0.000468632
SCALARS Solute_Concentration_SO4-- float 1
LOOKUP_TABLE default
0.000161
0.000161
0.000161
0.000161
0.000161
0.000161
0.000161
0.000161
0.000161
0.000161
0.000161
0.000161
0.000161
0.000161
0.000161
0.000161
0.000161
0.000161
0.000161
0.000161
0.000161
0.000161
0.000161
0.000161
0.000161
0.000161
0.000161
0.000161
0.000161
0.000161
0.000161
0.000161
0.000161
0.000161
0.000161
0.000161
0.000161
0.000161
0.000161
0.000161
0.000161
0.000161
0.000161
0.000161
0.000161
0.000161
0.000161
0.000161
0.000161
0.000161
0.000161
0.000161
0.000161
0.000161
0.000161
0.000161
0.000161
0.000161
0.000161
0.000161
SCALARS Solute_Concentration_SiO2(aq) float 1
LOOKUP_TABLE default
2.03017e-05
2.88766e-05
3.70441e-05
4.43254e-05
5.05245e-05
5.96054e-05
6.93382e-05
7.97699e-05
9.02986e-05
9.95322e-05
0.000110095
0.000120655
0.000130814
0.000141206
0.000149706
2.03017e-05
2.88766e-05
3.70441e-05
4.43254e-05
5.05245e-05
5.96054e-05
6.93382e-05
7.97699e-05
9.02986e-05
9.95322e-05
0.000110095
0.000120655
0.000130814
0.000141206
0.000149706
2.03017e-05
2.88766e-05
3.70441e-05
4.43254e-05
5.05245e-05
5.96054e-05
6.93382e-05
7.97699e-05
9.02986e-05
9.95322e-05
0.000110095
0.000120655
0.000130814
0.000141206
0.000149706
2.03017e-05
2.88766e-05
3.70441e-05
4.43254e-05
5.05245e-05
5.96054e-05
6.93382e-05
7.97699e-05
9.02986e-05
9.95322e-05
0.000110095
0.000120655
0.000130814
0.000141206
0.000149706
SCALARS Solute_Concentration_Sr++ float 1
LOOKUP_TABLE default
5.07e-07
5.07e-07
5.07e-07
5.07e-07
5.07e-07
5.07e-07
5.07e-07
5.07e-07
5.07e-07
5.07e-07
5.07e-07
5.07e-07
5.07e-07
5.07e-07
5.07e-07
5.07e-07
5.07e-07
5.07e-07
5.07e-07
5.07e-07
5.07e-07
5.07e-07
5.07e-07
5.07e-07
5.07e-07
5.07e-07
5.07e-07
5.07e-07
5.07e-07
5.07e-07
5.07e-07
5.07e-07
5.07e-07
5.07e-07
5.07e-07
5.07e-07
5.07e-07
5.07e-07
5.07e-07
5.07e-07
5.07e-07
5.07e-07
5.07e-07
5.07e-07
5.07e-07
5.07e-07
5.07e-07
5.07e-07
5.07e-07
5.07e-07
5.07e-07
5.07e-07
5.07e-07
5.07e-07
5.07e-07
5.07e-07
5.07e-07
5.07e-07
5.07e-07
5.07e-07
SCALARS Reaction_rates_Moles_per_L_porusmedium_per_second_Albite float 1
LOOKUP_TABLE default
1.24993e-16
1.26242e-15
7.24827e-15
1.47226e-14
3.55173e-14
5.64539e-14
7.16344e-14
7.35283e-14
6.41013e-14
6.95899e-14
6.43266e-14
5.45646e-14
6.00298e-14
5.77319e-14
6.03845e-14
1.24993e-16
1.26242e-15
7.24827e-15
1.47226e-14
3.55173e-14
5.64539e-14
7.16344e-14
7.35283e-14
6.41013e-14
6.95899e-14
6.43266e-14
5.45646e-14
6.00298e-14
5.77319e-14
6.03845e-14
1.24993e-16
1.26242e-15
7.24827e-15
1.47226e-14
3.55173e-14
5.64539e-14
7.16344e-14
7.35283e-14
6.41013e-14
6.95899e-14
6.43266e-14
5.45646e-14
6.00298e-14
5.77319e-14
6.03845e-14
1.24993e-16
1.26242e-15
7.24827e-15
1.47226e-14
3.55173e-14
5.64539e-14
7.16344e-14
7.35283e-14
6.41013e-14
6.95899e-14
6.43266e-14
5.45646e-14
6.00298e-14
5.77319e-14
6.03845e-14
SCALARS Reaction_rates_Moles_per_L_porusmedium_per_second_Quartz float 1
LOOKUP_TABLE default
-3.74274e-14
-3.59755e-14
-3.58475e-14
-3.3978e-14
-3.84667e-14
-4.86591e-14
-4.28169e-14
-4.46085e-14
-4.45025e-14
-4.21593e-14
-4.33433e-14
-3.99805e-14
-4.09584e-14
-3.8104e-14
-4.27348e-14
-3.74274e-14
-3.59755e-14
-3.58475e-14
-3.3978e-14
-3.84667e-14
-4.86591e-14
-4.28169e-14
-4.46085e-14
-4.45025e-14
-4.21593e-14
-4.33433e-14
-3.99805e-14
-4.09584e-14
-3.8104e-14
-4.27348e-14
-3.74274e-14
-3.59755e-14
-3.58475e-14
-3.3978e-14
-3.84667e-14
-4.86591e-14
-4.28169e-14
-4.46085e-14
-4.45025e-14
-4.21593e-14
-4.33433e-14
-3.99805e-14
-4.09584e-14
-3.8104e-14
-4.27348e-14
-3.74274e-14
-3.59755e-14
-3.58475e-14
-3.3978e-14
-3.84667e-14
-4.86591e-14
-4.28169e-14
-4.46085e-14
-4.45025e-14
-4.21593e-14
-4.33433e-14
-3.99805e-14
-4.09584e-14
-3.8104e-14
-4.27348e-14
SCALARS Mineral_mass_fraction_Albite float 1
LOOKUP_TABLE default
0.495064
0.509205
0.465595
0.51403
0.510462
0.499576
0.499336
0.501836
0.500148
0.498604
0.506856
0.486016
0.50812
0.50152
0.499876
0.483605
0.53093
0.485106
0.458527
0.556638
0.494923
0.508742
0.497411
0.504804
0.499843
0.498513
0.499494
0.493559
0.503454
0.503132
0.493748
0.509218
0.528507
0.476236
0.490758
0.500286
0.497578
0.502412
0.500603
0.501498
0.503512
0.498029
0.502491
0.491782
0.505612
0.506144
0.503958
0.517704
0.495697
0.483461
0.495074
0.503126
0.49809
0.499552
0.500519
0.505815
0.497077
0.495373
0.504714
0.498242
SCALARS Mineral_mass_fraction_Quartz float 1
LOOKUP_TABLE default
0.504936
0.490795
0.534405
0.48597
0.489538
0.500424
0.500664
0.498164
0.499852
0.501396
0.493144
0.513984
0.49188
0.49848
0.500124
0.516395
0.46907
0.514894
0.541473
0.443362
0.505077
0.491258
0.502589
0.495196
0.500157
0.501487
0.500506
0.506441
0.496546
0.496868
0.506252
0.490782
0.471493
0.523764
0.509242
0.499714
0.502422
0.497588
0.499397
0.498502
0.496488
0.501971
0.497509
0.508218
0.494388
0.493856
0.496042
0.482296
0.504303
0.516539
0.504926
0.496874
0.50191
0.500448
0.499481
0.494185
0.502923
0.504627
0.495286
0.501758
SCALARS Mineral_depletion_ratio_Albite float 1
LOOKUP_TABLE default
26525.6
26522.6
26523.8
26669.9
26657.9
19885.8
20536.6
21237.7
21877.8
21124.1
20038
22350.5
20153.9
21045.2
19679.3
26059.1
27045.7
22526.9
22024.9
30134.6
20549.5
21965.5
22011.5
20674.1
20727.8
20468.7
21638
20899.7
21165.5
18887
24096
25165.4
25497.6
25001.7
24615.5
21044.5
21192.3
21466.8
21103
20925.3
20570.7
20938.9
21798.8
21341.1
19432.6
25695
25648.3
25580.4
25728.2
25532.1
21465.4
21922.2
20267.1
21561.8
21145.7
19597.5
20150.8
20835.7
20997
19335.6
SCALARS Mineral_depletion_ratio_Quartz float 1
LOOKUP_TABLE default
24996.6
25044.6
24962.7
25127.7
24967.7
20362.2
21496.4
21342.7
21155.2
20738.1
21724.9
22338
20269.1
20696.1
19961.3
28045.1
23773
24248.2
26748.7
22511.2
20689.4
21144.3
20254.2
20042.3
20740.9
21491.7
20522
20354.2
20623.9
20667.6
27226.2
25250.4
25372.3
25027.7
24636.9
21282.5
20516.2
19937.5
20158.3
22732.1
22064.9
21266
20930.5
20809.1
20467.6
25439.8
25169
25540.7
25229.2
25226.6
20490.4
21999
20791.6
21135.9
20941.5
20850.2
21360.3
19629.2
21436.7
20485.6
