# vtk DataFile Version 2.0
Unstructured Grid Ptrack_cells
ASCII

DATASET UNSTRUCTURED_GRID
POINTS 80 float
0 99.9982 0.0
0 99.8981 0.0
0 99.798 0.0
0 99.698 0.0
0 99.5979 0.0
0 99.4978 0.0
0 99.3478 0.0
0 99.1979 0.0
0 99.0479 0.0
0 98.898 0.0
0 98.748 0.0
0 98.598 0.0
0 98.4481 0.0
0 98.2981 0.0
0 98.1482 0.0
0 97.9982 0.0
0.1 99.9982 0.0
0.1 99.8981 0.0
0.1 99.798 0.0
0.1 99.698 0.0
0.1 99.5979 0.0
0.1 99.4978 0.0
0.1 99.3478 0.0
0.1 99.1979 0.0
0.1 99.0479 0.0
0.1 98.898 0.0
0.1 98.748 0.0
0.1 98.598 0.0
0.1 98.4481 0.0
0.1 98.2981 0.0
0.1 98.1482 0.0
0.1 97.9982 0.0
0.2 99.9982 0.0
0.2 99.8981 0.0
0.2 99.798 0.0
0.2 99.698 0.0
0.2 99.5979 0.0
0.2 99.4978 0.0
0.2 99.3478 0.0
0.2 99.1979 0.0
0.2 99.0479 0.0
0.2 98.898 0.0
0.2 98.748 0.0
0.2 98.598 0.0
0.2 98.4481 0.0
0.2 98.2981 0.0
0.2 98.1482 0.0
0.2 97.9982 0.0
0.3 99.9982 0.0
0.3 99.8981 0.0
0.3 99.798 0.0
0.3 99.698 0.0
0.3 99.5979 0.0
0.3 99.4978 0.0
0.3 99.3478 0.0
0.3 99.1979 0.0
0.3 99.0479 0.0
0.3 98.898 0.0
0.3 98.748 0.0
0.3 98.598 0.0
0.3 98.4481 0.0
0.3 98.2981 0.0
0.3 98.1482 0.0
0.3 97.9982 0.0
0.4 99.9982 0.0
0.4 99.8981 0.0
0.4 99.798 0.0
0.4 99.698 0.0
0.4 99.5979 0.0
0.4 99.4978 0.0
0.4 99.3478 0.0
0.4 99.1979 0.0
0.4 99.0479 0.0
0.4 98.898 0.0
0.4 98.748 0.0
0.4 98.598 0.0
0.4 98.4481 0.0
0.4 98.2981 0.0
0.4 98.1482 0.0
0.4 97.9982 0.0

CELLS 60 300
4 0 16 17 1
4 1 17 18 2
4 2 18 19 3
4 3 19 20 4
4 4 20 21 5
4 5 21 22 6
4 6 22 23 7
4 7 23 24 8
4 8 24 25 9
4 9 25 26 10
4 10 26 27 11
4 11 27 28 12
4 12 28 29 13
4 13 29 30 14
4 14 30 31 15
4 16 32 33 17
4 17 33 34 18
4 18 34 35 19
4 19 35 36 20
4 20 36 37 21
4 21 37 38 22
4 22 38 39 23
4 23 39 40 24
4 24 40 41 25
4 25 41 42 26
4 26 42 43 27
4 27 43 44 28
4 28 44 45 29
4 29 45 46 30
4 30 46 47 31
4 32 48 49 33
4 33 49 50 34
4 34 50 51 35
4 35 51 52 36
4 36 52 53 37
4 37 53 54 38
4 38 54 55 39
4 39 55 56 40
4 40 56 57 41
4 41 57 58 42
4 42 58 59 43
4 43 59 60 44
4 44 60 61 45
4 45 61 62 46
4 46 62 63 47
4 48 64 65 49
4 49 65 66 50
4 50 66 67 51
4 51 67 68 52
4 52 68 69 53
4 53 69 70 54
4 54 70 71 55
4 55 71 72 56
4 56 72 73 57
4 57 73 74 58
4 58 74 75 59
4 59 75 76 60
4 60 76 77 61
4 61 77 78 62
4 62 78 79 63

CELL_TYPES 60
9
9
9
9
9
9
9
9
9
9
9
9
9
9
9
9
9
9
9
9
9
9
9
9
9
9
9
9
9
9
9
9
9
9
9
9
9
9
9
9
9
9
9
9
9
9
9
9
9
9
9
9
9
9
9
9
9
9
9
9

CELL_DATA 60
SCALARS SOIL_OR_PARENT int 1
LOOKUP_TABLE default
1
1
1
1
1
0
0
0
0
0
0
0
0
0
0
1
1
1
1
1
0
0
0
0
0
0
0
0
0
0
1
1
1
1
1
0
0
0
0
0
0
0
0
0
0
1
1
1
1
1
0
0
0
0
0
0
0
0
0
0
SCALARS CELL_NUM int 1
LOOKUP_TABLE default
0
1
2
3
4
5
6
7
8
9
10
11
12
13
14
15
16
17
18
19
20
21
22
23
24
25
26
27
28
29
30
31
32
33
34
35
36
37
38
39
40
41
42
43
44
45
46
47
48
49
50
51
52
53
54
55
56
57
58
59
SCALARS Mineral_volume_percents_Albite float 1
LOOKUP_TABLE default
48818.2
50164.2
50739.8
48578.5
52527.5
50085
50585.8
50094.3
50114.3
50144.6
50282.4
50162.2
50445.5
50271.7
49961.7
55573.9
59659.7
52624.7
53020.1
60135.2
50200.5
50212.4
50299.7
50124.2
50139
50502.9
50093.2
50373
50262.5
49936.5
51585.7
49136.6
49147.8
52015.6
49119
50608.6
49890.2
50274.1
50076.1
50451
50154.7
50500
49867.3
50401.9
49965.7
52101.2
55068
56277
47968.8
58675.8
50293.6
50324
50137.9
50041.9
50728
49948.6
50093.2
50357.2
50225.5
50044.3
SCALARS Mineral_volume_percents_Quartz float 1
LOOKUP_TABLE default
48029.3
52584.3
49546.8
46423.9
54142.9
50181.3
50084
50307.3
50035.4
50152.8
50189.5
50242.1
50013.1
50263.2
49830.4
57748.1
55308.6
56890
56181.9
54098.1
50378.5
50216.1
49856.3
50338.6
50216.7
49994.5
50160.2
50130.8
50009.2
50093.1
50332.1
52159
50280.8
50715
47334.4
50243.5
50096.9
50094
50059.8
50201.7
50129.2
50134.4
50326.6
50141.5
49879.9
52945.2
48149.2
55749
59884.3
54142.6
49855
50303.8
49936.1
50373.4
49890.4
50271.1
50109.3
50243
50095.6
49953.8
SCALARS Mineral_specific_surface_area_m2perg_Albite float 1
LOOKUP_TABLE default
0.090566
0.090566
0.090566
0.090566
0.090566
0.090566
0.090566
0.090566
0.090566
0.090566
0.090566
0.090566
0.090566
0.090566
0.090566
0.090566
0.090566
0.090566
0.090566
0.090566
0.090566
0.090566
0.090566
0.090566
0.090566
0.090566
0.090566
0.090566
0.090566
0.090566
0.090566
0.090566
0.090566
0.090566
0.090566
0.090566
0.090566
0.090566
0.090566
0.090566
0.090566
0.090566
0.090566
0.090566
0.090566
0.090566
0.090566
0.090566
0.090566
0.090566
0.090566
0.090566
0.090566
0.090566
0.090566
0.090566
0.090566
0.090566
0.090566
0.090566
SCALARS Mineral_specific_surface_area_m2perg_Quartz float 1
LOOKUP_TABLE default
0.090566
0.090566
0.090566
0.090566
0.090566
0.090566
0.090566
0.090566
0.090566
0.090566
0.090566
0.090566
0.090566
0.090566
0.090566
0.090566
0.090566
0.090566
0.090566
0.090566
0.090566
0.090566
0.090566
0.090566
0.090566
0.090566
0.090566
0.090566
0.090566
0.090566
0.090566
0.090566
0.090566
0.090566
0.090566
0.090566
0.090566
0.090566
0.090566
0.090566
0.090566
0.090566
0.090566
0.090566
0.090566
0.090566
0.090566
0.090566
0.090566
0.090566
0.090566
0.090566
0.090566
0.090566
0.090566
0.090566
0.090566
0.090566
0.090566
0.090566
SCALARS Mineral_mass_kg_Albite float 1
LOOKUP_TABLE default
12949.7
13306.8
13459.5
12886.2
13933.7
19902.2
20101.2
19905.9
19913.8
19925.8
19980.6
19932.8
20045.4
19976.3
19853.1
14741.8
15825.6
13959.5
14064.4
15951.8
19948.1
19952.8
19987.5
19917.7
19923.6
20068.2
19905.4
20016.6
19972.7
19843.2
13683.9
13034.2
13037.2
13797.9
13029.5
20110.2
19824.8
19977.3
19898.6
20047.6
19929.8
20067.1
19815.7
20028.1
19854.8
13820.6
14607.6
14928.3
12724.4
15564.6
19985
19997.1
19923.2
19885
20157.6
19848
19905.4
20010.3
19958
19886
SCALARS Mineral_mass_kg_Quartz float 1
LOOKUP_TABLE default
12740.5
13948.8
13143
12314.6
14362.2
19940.4
19901.7
19990.5
19882.5
19929.1
19943.7
19964.6
19873.6
19973
19801
15318.6
14671.4
15090.9
14903.1
14350.3
20018.8
19954.3
19811.3
20002.9
19954.5
19866.2
19932
19920.4
19872
19905.4
13351.3
13836
13337.7
13452.9
12556.2
19965.1
19906.9
19905.7
19892.1
19948.5
19919.7
19921.8
19998.2
19924.6
19820.7
14044.5
12772.3
14788.3
15885.2
14362.1
19810.8
19989.1
19843
20016.7
19824.8
19976.1
19911.8
19964.9
19906.4
19850
SCALARS Mineral_surface_area_m2_Albite float 1
LOOKUP_TABLE default
1.17281e+06
1.20514e+06
1.21897e+06
1.16705e+06
1.26192e+06
1.80246e+06
1.82048e+06
1.80279e+06
1.80351e+06
1.8046e+06
1.80956e+06
1.80524e+06
1.81543e+06
1.80918e+06
1.79802e+06
1.33511e+06
1.43326e+06
1.26425e+06
1.27375e+06
1.44469e+06
1.80662e+06
1.80704e+06
1.81019e+06
1.80387e+06
1.8044e+06
1.8175e+06
1.80275e+06
1.81282e+06
1.80885e+06
1.79712e+06
1.23929e+06
1.18046e+06
1.18073e+06
1.24962e+06
1.18003e+06
1.8213e+06
1.79545e+06
1.80926e+06
1.80214e+06
1.81563e+06
1.80497e+06
1.8174e+06
1.79463e+06
1.81386e+06
1.79817e+06
1.25168e+06
1.32295e+06
1.352e+06
1.1524e+06
1.40963e+06
1.80997e+06
1.81106e+06
1.80436e+06
1.80091e+06
1.8256e+06
1.79755e+06
1.80275e+06
1.81225e+06
1.80752e+06
1.801e+06
SCALARS Mineral_surface_area_m2_Quartz float 1
LOOKUP_TABLE default
1.15386e+06
1.26328e+06
1.19031e+06
1.11529e+06
1.30073e+06
1.80592e+06
1.80242e+06
1.81046e+06
1.80068e+06
1.8049e+06
1.80622e+06
1.80811e+06
1.79987e+06
1.80887e+06
1.7933e+06
1.38734e+06
1.32873e+06
1.36672e+06
1.34971e+06
1.29965e+06
1.81302e+06
1.80718e+06
1.79423e+06
1.81159e+06
1.8072e+06
1.7992e+06
1.80516e+06
1.80411e+06
1.79973e+06
1.80275e+06
1.20918e+06
1.25307e+06
1.20795e+06
1.21838e+06
1.13716e+06
1.80816e+06
1.80289e+06
1.80278e+06
1.80155e+06
1.80666e+06
1.80405e+06
1.80423e+06
1.81115e+06
1.80449e+06
1.79508e+06
1.27196e+06
1.15674e+06
1.33931e+06
1.43866e+06
1.30072e+06
1.79418e+06
1.81033e+06
1.7971e+06
1.81284e+06
1.79546e+06
1.80915e+06
1.80333e+06
1.80815e+06
1.80284e+06
1.79774e+06
SCALARS Solute_Concentration_Al+++ float 1
LOOKUP_TABLE default
6.13522e-06
8.5158e-06
1.03771e-05
1.14705e-05
1.16207e-05
1.10378e-05
9.28239e-06
7.55658e-06
6.36187e-06
4.69461e-06
3.68021e-06
3.22612e-06
2.59559e-06
2.25382e-06
1.72905e-06
6.13522e-06
8.5158e-06
1.03771e-05
1.14705e-05
1.16207e-05
1.10378e-05
9.28239e-06
7.55658e-06
6.36187e-06
4.69461e-06
3.68021e-06
3.22612e-06
2.59559e-06
2.25382e-06
1.72905e-06
6.13522e-06
8.5158e-06
1.03771e-05
1.14705e-05
1.16207e-05
1.10378e-05
9.28239e-06
7.55658e-06
6.36187e-06
4.69461e-06
3.68021e-06
3.22612e-06
2.59559e-06
2.25382e-06
1.72905e-06
6.13522e-06
8.5158e-06
1.03771e-05
1.14705e-05
1.16207e-05
1.10378e-05
9.28239e-06
7.55658e-06
6.36187e-06
4.69461e-06
3.68021e-06
3.22612e-06
2.59559e-06
2.25382e-06
1.72905e-06
SCALARS Solute_Concentration_CO2(aq) float 1
LOOKUP_TABLE default
0.00964234
0.0094933
0.00936644
0.00927138
0.00921234
0.00914699
0.00910561
0.00905555
0.0089879
0.00894332
0.00886696
0.00877443
0.00868895
0.00859295
0.00851923
0.00964234
0.0094933
0.00936644
0.00927138
0.00921234
0.00914699
0.00910561
0.00905555
0.0089879
0.00894332
0.00886696
0.00877443
0.00868895
0.00859295
0.00851923
0.00964234
0.0094933
0.00936644
0.00927138
0.00921234
0.00914699
0.00910561
0.00905555
0.0089879
0.00894332
0.00886696
0.00877443
0.00868895
0.00859295
0.00851923
0.00964234
0.0094933
0.00936644
0.00927138
0.00921234
0.00914699
0.00910561
0.00905555
0.0089879
0.00894332
0.00886696
0.00877443
0.00868895
0.00859295
0.00851923
SCALARS Solute_Concentration_Ca++ float 1
LOOKUP_TABLE default
9.0701e-05
9.07016e-05
9.07021e-05
9.07027e-05
9.07031e-05
9.07039e-05
9.07048e-05
9.07057e-05
9.07067e-05
9.07077e-05
9.07086e-05
9.07095e-05
9.07104e-05
9.07113e-05
9.07122e-05
9.0701e-05
9.07016e-05
9.07021e-05
9.07027e-05
9.07031e-05
9.07039e-05
9.07048e-05
9.07057e-05
9.07067e-05
9.07077e-05
9.07086e-05
9.07095e-05
9.07104e-05
9.07113e-05
9.07122e-05
9.0701e-05
9.07016e-05
9.07021e-05
9.07027e-05
9.07031e-05
9.07039e-05
9.07048e-05
9.07057e-05
9.07067e-05
9.07077e-05
9.07086e-05
9.07095e-05
9.07104e-05
9.07113e-05
9.07122e-05
9.0701e-05
9.07016e-05
9.07021e-05
9.07027e-05
9.07031e-05
9.07039e-05
9.07048e-05
9.07057e-05
9.07067e-05
9.07077e-05
9.07086e-05
9.07095e-05
9.07104e-05
9.07113e-05
9.07122e-05
SCALARS Solute_Concentration_Cl- float 1
LOOKUP_TABLE default
0.000465
0.000465
0.000465
0.000465
0.000465
0.000465
0.000465
0.000465
0.000465
0.000465
0.000465
0.000465
0.000465
0.000465
0.000465
0.000465
0.000465
0.000465
0.000465
0.000465
0.000465
0.000465
0.000465
0.000465
0.000465
0.000465
0.000465
0.000465
0.000465
0.000465
0.000465
0.000465
0.000465
0.000465
0.000465
0.000465
0.000465
0.000465
0.000465
0.000465
0.000465
0.000465
0.000465
0.000465
0.000465
0.000465
0.000465
0.000465
0.000465
0.000465
0.000465
0.000465
0.000465
0.000465
0.000465
0.000465
0.000465
0.000465
0.000465
0.000465
SCALARS Solute_Concentration_Fe++ float 1
LOOKUP_TABLE default
2.0998e-08
3.17274e-08
4.30936e-08
5.31417e-08
6.28811e-08
7.76673e-08
9.6105e-08
1.13267e-07
1.34249e-07
1.53977e-07
1.72772e-07
1.90613e-07
2.0914e-07
2.26572e-07
2.43091e-07
2.0998e-08
3.17274e-08
4.30936e-08
5.31417e-08
6.28811e-08
7.76673e-08
9.6105e-08
1.13267e-07
1.34249e-07
1.53977e-07
1.72772e-07
1.90613e-07
2.0914e-07
2.26572e-07
2.43091e-07
2.0998e-08
3.17274e-08
4.30936e-08
5.31417e-08
6.28811e-08
7.76673e-08
9.6105e-08
1.13267e-07
1.34249e-07
1.53977e-07
1.72772e-07
1.90613e-07
2.0914e-07
2.26572e-07
2.43091e-07
2.0998e-08
3.17274e-08
4.30936e-08
5.31417e-08
6.28811e-08
7.76673e-08
9.6105e-08
1.13267e-07
1.34249e-07
1.53977e-07
1.72772e-07
1.90613e-07
2.0914e-07
2.26572e-07
2.43091e-07
SCALARS Solute_Concentration_Fe+++ float 1
LOOKUP_TABLE default
8.35922e-09
1.2651e-08
1.71974e-08
2.12167e-08
2.51124e-08
3.10269e-08
3.8402e-08
4.52668e-08
5.36594e-08
6.15509e-08
6.90689e-08
7.62052e-08
8.36161e-08
9.05887e-08
9.71965e-08
8.35922e-09
1.2651e-08
1.71974e-08
2.12167e-08
2.51124e-08
3.10269e-08
3.8402e-08
4.52668e-08
5.36594e-08
6.15509e-08
6.90689e-08
7.62052e-08
8.36161e-08
9.05887e-08
9.71965e-08
8.35922e-09
1.2651e-08
1.71974e-08
2.12167e-08
2.51124e-08
3.10269e-08
3.8402e-08
4.52668e-08
5.36594e-08
6.15509e-08
6.90689e-08
7.62052e-08
8.36161e-08
9.05887e-08
9.71965e-08
8.35922e-09
1.2651e-08
1.71974e-08
2.12167e-08
2.51124e-08
3.10269e-08
3.8402e-08
4.52668e-08
5.36594e-08
6.15509e-08
6.90689e-08
7.62052e-08
8.36161e-08
9.05887e-08
9.71965e-08
SCALARS Solute_Concentration_H+ float 1
LOOKUP_TABLE default
-4.2519e-05
-5.2825e-05
-6.1633e-05
-6.80701e-05
-7.1606e-05
-7.47814e-05
-7.53747e-05
-7.63832e-05
-7.87919e-05
-7.93639e-05
-8.22268e-05
-8.6483e-05
-9.01021e-05
-9.45525e-05
-9.75938e-05
-4.2519e-05
-5.2825e-05
-6.1633e-05
-6.80701e-05
-7.1606e-05
-7.47814e-05
-7.53747e-05
-7.63832e-05
-7.87919e-05
-7.93639e-05
-8.22268e-05
-8.6483e-05
-9.01021e-05
-9.45525e-05
-9.75938e-05
-4.2519e-05
-5.2825e-05
-6.1633e-05
-6.80701e-05
-7.1606e-05
-7.47814e-05
-7.53747e-05
-7.63832e-05
-7.87919e-05
-7.93639e-05
-8.22268e-05
-8.6483e-05
-9.01021e-05
-9.45525e-05
-9.75938e-05
-4.2519e-05
-5.2825e-05
-6.1633e-05
-6.80701e-05
-7.1606e-05
-7.47814e-05
-7.53747e-05
-7.63832e-05
-7.87919e-05
-7.93639e-05
-8.22268e-05
-8.6483e-05
-9.01021e-05
-9.45525e-05
-9.75938e-05
SCALARS Solute_Concentration_K+ float 1
LOOKUP_TABLE default
1.89683e-05
2.0249e-05
2.15253e-05
2.27914e-05
2.41017e-05
2.62209e-05
2.84953e-05
3.09354e-05
3.33257e-05
3.55583e-05
3.78959e-05
4.00428e-05
4.20981e-05
4.40162e-05
4.58067e-05
1.89683e-05
2.0249e-05
2.15253e-05
2.27914e-05
2.41017e-05
2.62209e-05
2.84953e-05
3.09354e-05
3.33257e-05
3.55583e-05
3.78959e-05
4.00428e-05
4.20981e-05
4.40162e-05
4.58067e-05
1.89683e-05
2.0249e-05
2.15253e-05
2.27914e-05
2.41017e-05
2.62209e-05
2.84953e-05
3.09354e-05
3.33257e-05
3.55583e-05
3.78959e-05
4.00428e-05
4.20981e-05
4.40162e-05
4.58067e-05
1.89683e-05
2.0249e-05
2.15253e-05
2.27914e-05
2.41017e-05
2.62209e-05
2.84953e-05
3.09354e-05
3.33257e-05
3.55583e-05
3.78959e-05
4.00428e-05
4.20981e-05
4.40162e-05
4.58067e-05
SCALARS Solute_Concentration_Mg++ float 1
LOOKUP_TABLE default
6.88481e-05
6.88727e-05
6.88989e-05
6.8922e-05
6.89444e-05
6.89784e-05
6.90208e-05
6.90603e-05
6.91085e-05
6.91539e-05
6.91972e-05
6.92382e-05
6.92808e-05
6.93209e-05
6.93589e-05
6.88481e-05
6.88727e-05
6.88989e-05
6.8922e-05
6.89444e-05
6.89784e-05
6.90208e-05
6.90603e-05
6.91085e-05
6.91539e-05
6.91972e-05
6.92382e-05
6.92808e-05
6.93209e-05
6.93589e-05
6.88481e-05
6.88727e-05
6.88989e-05
6.8922e-05
6.89444e-05
6.89784e-05
6.90208e-05
6.90603e-05
6.91085e-05
6.91539e-05
6.91972e-05
6.92382e-05
6.92808e-05
6.93209e-05
6.93589e-05
6.88481e-05
6.88727e-05
6.88989e-05
6.8922e-05
6.89444e-05
6.89784e-05
6.90208e-05
6.90603e-05
6.91085e-05
6.91539e-05
6.91972e-05
6.92382e-05
6.92808e-05
6.93209e-05
6.93589e-05
SCALARS Solute_Concentration_NO3- float 1
LOOKUP_TABLE default
0.0001
0.0001
0.0001
0.0001
0.0001
0.0001
0.0001
0.0001
0.0001
0.0001
0.0001
0.0001
0.0001
0.0001
0.0001
0.0001
0.0001
0.0001
0.0001
0.0001
0.0001
0.0001
0.0001
0.0001
0.0001
0.0001
0.0001
0.0001
0.0001
0.0001
0.0001
0.0001
0.0001
0.0001
0.0001
0.0001
0.0001
0.0001
0.0001
0.0001
0.0001
0.0001
0.0001
0.0001
0.0001
0.0001
0.0001
0.0001
0.0001
0.0001
0.0001
0.0001
0.0001
0.0001
0.0001
0.0001
0.0001
0.0001
0.0001
0.0001
SCALARS Solute_Concentration_Na+ float 1
LOOKUP_TABLE default
0.000428932
0.00043073
0.000432588
0.0004344
0.000436098
0.000438786
0.000442225
0.000445836
0.000449272
0.000452458
0.000455878
0.000459208
0.000462517
0.000465937
0.000468632
0.000428932
0.00043073
0.000432588
0.0004344
0.000436098
0.000438786
0.000442225
0.000445836
0.000449272
0.000452458
0.000455878
0.000459208
0.000462517
0.000465937
0.000468632
0.000428932
0.00043073
0.000432588
0.0004344
0.000436098
0.000438786
0.000442225
0.000445836
0.000449272
0.000452458
0.000455878
0.000459208
0.000462517
0.000465937
0.000468632
0.000428932
0.00043073
0.000432588
0.0004344
0.000436098
0.000438786
0.000442225
0.000445836
0.000449272
0.000452458
0.000455878
0.000459208
0.000462517
0.000465937
0.000468632
SCALARS Solute_Concentration_SO4-- float 1
LOOKUP_TABLE default
0.000161
0.000161
0.000161
0.000161
0.000161
0.000161
0.000161
0.000161
0.000161
0.000161
0.000161
0.000161
0.000161
0.000161
0.000161
0.000161
0.000161
0.000161
0.000161
0.000161
0.000161
0.000161
0.000161
0.000161
0.000161
0.000161
0.000161
0.000161
0.000161
0.000161
0.000161
0.000161
0.000161
0.000161
0.000161
0.000161
0.000161
0.000161
0.000161
0.000161
0.000161
0.000161
0.000161
0.000161
0.000161
0.000161
0.000161
0.000161
0.000161
0.000161
0.000161
0.000161
0.000161
0.000161
0.000161
0.000161
0.000161
0.000161
0.000161
0.000161
SCALARS Solute_Concentration_SiO2(aq) float 1
LOOKUP_TABLE default
2.03017e-05
2.88766e-05
3.70441e-05
4.43254e-05
5.05245e-05
5.96054e-05
6.93382e-05
7.97699e-05
9.02986e-05
9.95322e-05
0.000110095
0.000120655
0.000130814
0.000141206
0.000149706
2.03017e-05
2.88766e-05
3.70441e-05
4.43254e-05
5.05245e-05
5.96054e-05
6.93382e-05
7.97699e-05
9.02986e-05
9.95322e-05
0.000110095
0.000120655
0.000130814
0.000141206
0.000149706
2.03017e-05
2.88766e-05
3.70441e-05
4.43254e-05
5.05245e-05
5.96054e-05
6.93382e-05
7.97699e-05
9.02986e-05
9.95322e-05
0.000110095
0.000120655
0.000130814
0.000141206
0.000149706
2.03017e-05
2.88766e-05
3.70441e-05
4.43254e-05
5.05245e-05
5.96054e-05
6.93382e-05
7.97699e-05
9.02986e-05
9.95322e-05
0.000110095
0.000120655
0.000130814
0.000141206
0.000149706
SCALARS Solute_Concentration_Sr++ float 1
LOOKUP_TABLE default
5.07e-07
5.07e-07
5.07e-07
5.07e-07
5.07e-07
5.07e-07
5.07e-07
5.07e-07
5.07e-07
5.07e-07
5.07e-07
5.07e-07
5.07e-07
5.07e-07
5.07e-07
5.07e-07
5.07e-07
5.07e-07
5.07e-07
5.07e-07
5.07e-07
5.07e-07
5.07e-07
5.07e-07
5.07e-07
5.07e-07
5.07e-07
5.07e-07
5.07e-07
5.07e-07
5.07e-07
5.07e-07
5.07e-07
5.07e-07
5.07e-07
5.07e-07
5.07e-07
5.07e-07
5.07e-07
5.07e-07
5.07e-07
5.07e-07
5.07e-07
5.07e-07
5.07e-07
5.07e-07
5.07e-07
5.07e-07
5.07e-07
5.07e-07
5.07e-07
5.07e-07
5.07e-07
5.07e-07
5.07e-07
5.07e-07
5.07e-07
5.07e-07
5.07e-07
5.07e-07
SCALARS Reaction_rates_Moles_per_L_porusmedium_per_second_Albite float 1
LOOKUP_TABLE default
1.24993e-16
1.26242e-15
7.24827e-15
1.47226e-14
3.55173e-14
5.64539e-14
7.16344e-14
7.35283e-14
6.41013e-14
6.95899e-14
6.43266e-14
5.45646e-14
6.00298e-14
5.77319e-14
6.03845e-14
1.24993e-16
1.26242e-15
7.24827e-15
1.47226e-14
3.55173e-14
5.64539e-14
7.16344e-14
7.35283e-14
6.41013e-14
6.95899e-14
6.43266e-14
5.45646e-14
6.00298e-14
5.77319e-14
6.03845e-14
1.24993e-16
1.26242e-15
7.24827e-15
1.47226e-14
3.55173e-14
5.64539e-14
7.16344e-14
7.35283e-14
6.41013e-14
6.95899e-14
6.43266e-14
5.45646e-14
6.00298e-14
5.77319e-14
6.03845e-14
1.24993e-16
1.26242e-15
7.24827e-15
1.47226e-14
3.55173e-14
5.64539e-14
7.16344e-14
7.35283e-14
6.41013e-14
6.95899e-14
6.43266e-14
5.45646e-14
6.00298e-14
5.77319e-14
6.03845e-14
SCALARS Reaction_rates_Moles_per_L_porusmedium_per_second_Quartz float 1
LOOKUP_TABLE default
-3.74274e-14
-3.59755e-14
-3.58475e-14
-3.3978e-14
-3.84667e-14
-4.86591e-14
-4.28169e-14
-4.46085e-14
-4.45025e-14
-4.21593e-14
-4.33433e-14
-3.99805e-14
-4.09584e-14
-3.8104e-14
-4.27348e-14
-3.74274e-14
-3.59755e-14
-3.58475e-14
-3.3978e-14
-3.84667e-14
-4.86591e-14
-4.28169e-14
-4.46085e-14
-4.45025e-14
-4.21593e-14
-4.33433e-14
-3.99805e-14
-4.09584e-14
-3.8104e-14
-4.27348e-14
-3.74274e-14
-3.59755e-14
-3.58475e-14
-3.3978e-14
-3.84667e-14
-4.86591e-14
-4.28169e-14
-4.46085e-14
-4.45025e-14
-4.21593e-14
-4.33433e-14
-3.99805e-14
-4.09584e-14
-3.8104e-14
-4.27348e-14
-3.74274e-14
-3.59755e-14
-3.58475e-14
-3.3978e-14
-3.84667e-14
-4.86591e-14
-4.28169e-14
-4.46085e-14
-4.45025e-14
-4.21593e-14
-4.33433e-14
-3.99805e-14
-4.09584e-14
-3.8104e-14
-4.27348e-14
SCALARS Mineral_mass_fraction_Albite float 1
LOOKUP_TABLE default
0.503416
0.490176
0.504991
0.509403
0.493655
0.499647
0.502119
0.499157
0.500372
0.500004
0.500425
0.49971
0.501836
0.500076
0.500593
0.49188
0.516152
0.483561
0.487793
0.52252
0.499309
0.500023
0.501887
0.499154
0.499715
0.50215
0.499764
0.501046
0.501095
0.499393
0.50518
0.487575
0.495288
0.505331
0.507698
0.501558
0.499177
0.50079
0.500112
0.501071
0.500146
0.501558
0.49813
0.501122
0.500404
0.496662
0.528113
0.502028
0.453428
0.517098
0.501872
0.500123
0.500883
0.498667
0.50351
0.498699
0.499975
0.500514
0.500581
0.500423
SCALARS Mineral_mass_fraction_Quartz float 1
LOOKUP_TABLE default
0.496584
0.509824
0.495009
0.490597
0.506345
0.500353
0.497881
0.500843
0.499628
0.499996
0.499575
0.50029
0.498164
0.499924
0.499407
0.50812
0.483848
0.516439
0.512207
0.47748
0.500691
0.499977
0.498113
0.500846
0.500285
0.49785
0.500236
0.498954
0.498905
0.500607
0.49482
0.512425
0.504712
0.494669
0.492302
0.498442
0.500823
0.49921
0.499888
0.498929
0.499854
0.498442
0.50187
0.498878
0.499596
0.503338
0.471887
0.497972
0.546572
0.482902
0.498128
0.499877
0.499117
0.501333
0.49649
0.501301
0.500025
0.499486
0.499419
0.499577
SCALARS Mineral_depletion_ratio_Albite float 1
LOOKUP_TABLE default
1732.55
1720.48
1718.8
1735.56
1709.65
1519.68
1392.54
1507.89
1453.27
1509.13
1459.53
1483.8
1467.97
1422.41
1378.17
1965.44
1969.48
1983.53
2066.82
2098.94
1414.42
1408.43
1414.64
1414.72
1376.27
1445.03
1428.81
1420.56
1490.91
1453.36
1680.37
1706.99
1697.21
1683.43
1688.88
1499.48
1529.35
1395.47
1401.12
1486.28
1511.78
1444.99
1603.58
1557.48
1417.26
1858.9
1942.26
2009.74
1831.52
1875.22
1402.08
1430.01
1565.91
1447.11
1375.87
1455.88
1331.1
1450.29
1449.33
1444.94
SCALARS Mineral_depletion_ratio_Quartz float 1
LOOKUP_TABLE default
1856.81
1829.88
1841.72
1867.99
1829.12
1559.09
1472.47
1423
1333.31
1404.74
1375.23
1483.22
1486.8
1415.66
1489.2
2009.18
1905.3
1970.21
1852.9
2010.29
1479.66
1453.27
1533.16
1419.52
1464.41
1378.71
1481.2
1594.24
1351.66
1391.01
1795.5
1791.38
1793.99
1786.41
1820.05
1425.71
1486.57
1448.1
1528.52
1522.37
1469.03
1460.17
1455.93
1425.45
1427.73
1798.04
1731.38
1953.36
1925.19
1916.8
1403.95
1475.59
1487.2
1465.98
1541.51
1428.51
1461.8
1398.61
1413.81
1418.83
