# vtk DataFile Version 2.0
Unstructured Grid Ptrack_cells
ASCII

DATASET UNSTRUCTURED_GRID
POINTS 80 float
0 99.9883 0.0
0 99.8877 0.0
0 99.787 0.0
0 99.6863 0.0
0 99.5857 0.0
0 99.485 0.0
0 99.3353 0.0
0 99.1857 0.0
0 99.036 0.0
0 98.8863 0.0
0 98.7367 0.0
0 98.587 0.0
0 98.4373 0.0
0 98.2877 0.0
0 98.138 0.0
0 97.9883 0.0
0.1 99.9883 0.0
0.1 99.8877 0.0
0.1 99.787 0.0
0.1 99.6863 0.0
0.1 99.5857 0.0
0.1 99.485 0.0
0.1 99.3353 0.0
0.1 99.1857 0.0
0.1 99.036 0.0
0.1 98.8863 0.0
0.1 98.7367 0.0
0.1 98.587 0.0
0.1 98.4373 0.0
0.1 98.2877 0.0
0.1 98.138 0.0
0.1 97.9883 0.0
0.2 99.9883 0.0
0.2 99.8877 0.0
0.2 99.787 0.0
0.2 99.6863 0.0
0.2 99.5857 0.0
0.2 99.485 0.0
0.2 99.3353 0.0
0.2 99.1857 0.0
0.2 99.036 0.0
0.2 98.8863 0.0
0.2 98.7367 0.0
0.2 98.587 0.0
0.2 98.4373 0.0
0.2 98.2877 0.0
0.2 98.138 0.0
0.2 97.9883 0.0
0.3 99.9883 0.0
0.3 99.8877 0.0
0.3 99.787 0.0
0.3 99.6863 0.0
0.3 99.5857 0.0
0.3 99.485 0.0
0.3 99.3353 0.0
0.3 99.1857 0.0
0.3 99.036 0.0
0.3 98.8863 0.0
0.3 98.7367 0.0
0.3 98.587 0.0
0.3 98.4373 0.0
0.3 98.2877 0.0
0.3 98.138 0.0
0.3 97.9883 0.0
0.4 99.9883 0.0
0.4 99.8877 0.0
0.4 99.787 0.0
0.4 99.6863 0.0
0.4 99.5857 0.0
0.4 99.485 0.0
0.4 99.3353 0.0
0.4 99.1857 0.0
0.4 99.036 0.0
0.4 98.8863 0.0
0.4 98.7367 0.0
0.4 98.587 0.0
0.4 98.4373 0.0
0.4 98.2877 0.0
0.4 98.138 0.0
0.4 97.9883 0.0

CELLS 60 300
4 0 16 17 1
4 1 17 18 2
4 2 18 19 3
4 3 19 20 4
4 4 20 21 5
4 5 21 22 6
4 6 22 23 7
4 7 23 24 8
4 8 24 25 9
4 9 25 26 10
4 10 26 27 11
4 11 27 28 12
4 12 28 29 13
4 13 29 30 14
4 14 30 31 15
4 16 32 33 17
4 17 33 34 18
4 18 34 35 19
4 19 35 36 20
4 20 36 37 21
4 21 37 38 22
4 22 38 39 23
4 23 39 40 24
4 24 40 41 25
4 25 41 42 26
4 26 42 43 27
4 27 43 44 28
4 28 44 45 29
4 29 45 46 30
4 30 46 47 31
4 32 48 49 33
4 33 49 50 34
4 34 50 51 35
4 35 51 52 36
4 36 52 53 37
4 37 53 54 38
4 38 54 55 39
4 39 55 56 40
4 40 56 57 41
4 41 57 58 42
4 42 58 59 43
4 43 59 60 44
4 44 60 61 45
4 45 61 62 46
4 46 62 63 47
4 48 64 65 49
4 49 65 66 50
4 50 66 67 51
4 51 67 68 52
4 52 68 69 53
4 53 69 70 54
4 54 70 71 55
4 55 71 72 56
4 56 72 73 57
4 57 73 74 58
4 58 74 75 59
4 59 75 76 60
4 60 76 77 61
4 61 77 78 62
4 62 78 79 63

CELL_TYPES 60
9
9
9
9
9
9
9
9
9
9
9
9
9
9
9
9
9
9
9
9
9
9
9
9
9
9
9
9
9
9
9
9
9
9
9
9
9
9
9
9
9
9
9
9
9
9
9
9
9
9
9
9
9
9
9
9
9
9
9
9

CELL_DATA 60
SCALARS SOIL_OR_PARENT int 1
LOOKUP_TABLE default
1
1
1
1
1
0
0
0
0
0
0
0
0
0
0
1
1
1
1
1
0
0
0
0
0
0
0
0
0
0
1
1
1
1
1
0
0
0
0
0
0
0
0
0
0
1
1
1
1
1
0
0
0
0
0
0
0
0
0
0
SCALARS CELL_NUM int 1
LOOKUP_TABLE default
0
1
2
3
4
5
6
7
8
9
10
11
12
13
14
15
16
17
18
19
20
21
22
23
24
25
26
27
28
29
30
31
32
33
34
35
36
37
38
39
40
41
42
43
44
45
46
47
48
49
50
51
52
53
54
55
56
57
58
59
SCALARS Mineral_volume_percents_Albite float 1
LOOKUP_TABLE default
547785
563038
575223
580696
537004
563363
551473
563507
558457
555790
568997
546659
576899
554354
537348
551271
603005
499118
613969
553747
556132
565903
548692
563160
571350
548226
563737
558533
564874
535505
608246
544333
566713
519322
590236
562790
561071
556027
559180
563901
562346
557641
561271
558093
538682
554855
559804
582519
562449
544419
555404
566500
563506
552322
562907
554342
563567
557358
561171
541657
SCALARS Mineral_volume_percents_Quartz float 1
LOOKUP_TABLE default
530028
590924
575164
562552
548861
560650
552755
558918
558964
568329
547757
569804
558683
559315
534263
490711
629143
574602
593838
514906
563417
556159
563227
557257
561075
560620
558176
559904
567215
527900
546666
582349
530020
579709
585321
552510
563757
559333
560711
551184
562671
564050
552305
567907
535409
591588
550245
550815
538827
564010
567488
556708
553838
565463
559997
550246
569975
555472
557729
541801
SCALARS Mineral_specific_surface_area_m2perg_Albite float 1
LOOKUP_TABLE default
0.090566
0.090566
0.090566
0.090566
0.090566
0.090566
0.090566
0.090566
0.090566
0.090566
0.090566
0.090566
0.090566
0.090566
0.090566
0.090566
0.090566
0.090566
0.090566
0.090566
0.090566
0.090566
0.090566
0.090566
0.090566
0.090566
0.090566
0.090566
0.090566
0.090566
0.090566
0.090566
0.090566
0.090566
0.090566
0.090566
0.090566
0.090566
0.090566
0.090566
0.090566
0.090566
0.090566
0.090566
0.090566
0.090566
0.090566
0.090566
0.090566
0.090566
0.090566
0.090566
0.090566
0.090566
0.090566
0.090566
0.090566
0.090566
0.090566
0.090566
SCALARS Mineral_specific_surface_area_m2perg_Quartz float 1
LOOKUP_TABLE default
0.090566
0.090566
0.090566
0.090566
0.090566
0.090566
0.090566
0.090566
0.090566
0.090566
0.090566
0.090566
0.090566
0.090566
0.090566
0.090566
0.090566
0.090566
0.090566
0.090566
0.090566
0.090566
0.090566
0.090566
0.090566
0.090566
0.090566
0.090566
0.090566
0.090566
0.090566
0.090566
0.090566
0.090566
0.090566
0.090566
0.090566
0.090566
0.090566
0.090566
0.090566
0.090566
0.090566
0.090566
0.090566
0.090566
0.090566
0.090566
0.090566
0.090566
0.090566
0.090566
0.090566
0.090566
0.090566
0.090566
0.090566
0.090566
0.090566
0.090566
SCALARS Mineral_mass_kg_Albite float 1
LOOKUP_TABLE default
146131
150200
153450
154910
143255
223439
218723
223496
221493
220436
225674
216814
228808
219866
213121
147061
160862
133148
163787
147721
220571
224447
217620
223359
226607
217436
223587
221524
224038
212390
162260
145210
151180
138538
157455
223212
222530
220529
221780
223652
223036
221170
222609
221349
213650
148017
149337
155397
150043
145233
220283
224683
223496
219060
223258
219861
223520
221057
222570
214830
SCALARS Mineral_mass_kg_Quartz float 1
LOOKUP_TABLE default
141394
157639
153435
150070
146418
222363
219232
221676
221694
225409
217250
225994
221583
221834
211897
130905
167834
153285
158416
137360
223461
220582
223385
221017
222532
222351
221382
222067
224967
209374
145832
155351
141392
154647
156144
219135
223595
221841
222387
218609
223165
223712
219053
225241
212352
157816
146787
146939
143741
150459
225075
220800
219661
224272
222104
218237
226062
220309
221205
214887
SCALARS Mineral_surface_area_m2_Albite float 1
LOOKUP_TABLE default
1.32345e+07
1.3603e+07
1.38974e+07
1.40296e+07
1.2974e+07
2.0236e+07
1.98089e+07
2.02412e+07
2.00598e+07
1.9964e+07
2.04384e+07
1.9636e+07
2.07222e+07
1.99124e+07
1.93015e+07
1.33187e+07
1.45686e+07
1.20587e+07
1.48335e+07
1.33785e+07
1.99763e+07
2.03273e+07
1.9709e+07
2.02287e+07
2.05229e+07
1.96923e+07
2.02494e+07
2.00625e+07
2.02903e+07
1.92353e+07
1.46952e+07
1.31511e+07
1.36918e+07
1.25468e+07
1.42601e+07
2.02154e+07
2.01537e+07
1.99725e+07
2.00857e+07
2.02553e+07
2.01995e+07
2.00305e+07
2.01608e+07
2.00467e+07
1.93495e+07
1.34053e+07
1.35249e+07
1.40737e+07
1.35888e+07
1.31532e+07
1.99501e+07
2.03487e+07
2.02411e+07
1.98394e+07
2.02196e+07
1.9912e+07
2.02433e+07
2.00203e+07
2.01573e+07
1.94563e+07
SCALARS Mineral_surface_area_m2_Quartz float 1
LOOKUP_TABLE default
1.28055e+07
1.42767e+07
1.3896e+07
1.35913e+07
1.32605e+07
2.01386e+07
1.9855e+07
2.00763e+07
2.0078e+07
2.04144e+07
1.96754e+07
2.04674e+07
2.00679e+07
2.00906e+07
1.91907e+07
1.18556e+07
1.52001e+07
1.38824e+07
1.43471e+07
1.24401e+07
2.02379e+07
1.99772e+07
2.02311e+07
2.00167e+07
2.01538e+07
2.01375e+07
2.00497e+07
2.01117e+07
2.03744e+07
1.89622e+07
1.32074e+07
1.40695e+07
1.28053e+07
1.40058e+07
1.41414e+07
1.98462e+07
2.02501e+07
2.00912e+07
2.01407e+07
1.97985e+07
2.02111e+07
2.02607e+07
1.98388e+07
2.03992e+07
1.92319e+07
1.42928e+07
1.32939e+07
1.33077e+07
1.30181e+07
1.36265e+07
2.03842e+07
1.99969e+07
1.98939e+07
2.03114e+07
2.01151e+07
1.97648e+07
2.04735e+07
1.99525e+07
2.00336e+07
1.94615e+07
SCALARS Solute_Concentration_Al+++ float 1
LOOKUP_TABLE default
6.13522e-06
8.5158e-06
1.03771e-05
1.14705e-05
1.16207e-05
1.10378e-05
9.28239e-06
7.55658e-06
6.36187e-06
4.69461e-06
3.68021e-06
3.22612e-06
2.59559e-06
2.25382e-06
1.72905e-06
6.13522e-06
8.5158e-06
1.03771e-05
1.14705e-05
1.16207e-05
1.10378e-05
9.28239e-06
7.55658e-06
6.36187e-06
4.69461e-06
3.68021e-06
3.22612e-06
2.59559e-06
2.25382e-06
1.72905e-06
6.13522e-06
8.5158e-06
1.03771e-05
1.14705e-05
1.16207e-05
1.10378e-05
9.28239e-06
7.55658e-06
6.36187e-06
4.69461e-06
3.68021e-06
3.22612e-06
2.59559e-06
2.25382e-06
1.72905e-06
6.13522e-06
8.5158e-06
1.03771e-05
1.14705e-05
1.16207e-05
1.10378e-05
9.28239e-06
7.55658e-06
6.36187e-06
4.69461e-06
3.68021e-06
3.22612e-06
2.59559e-06
2.25382e-06
1.72905e-06
SCALARS Solute_Concentration_CO2(aq) float 1
LOOKUP_TABLE default
0.00964234
0.0094933
0.00936644
0.00927138
0.00921234
0.00914699
0.00910561
0.00905555
0.0089879
0.00894332
0.00886696
0.00877443
0.00868895
0.00859295
0.00851923
0.00964234
0.0094933
0.00936644
0.00927138
0.00921234
0.00914699
0.00910561
0.00905555
0.0089879
0.00894332
0.00886696
0.00877443
0.00868895
0.00859295
0.00851923
0.00964234
0.0094933
0.00936644
0.00927138
0.00921234
0.00914699
0.00910561
0.00905555
0.0089879
0.00894332
0.00886696
0.00877443
0.00868895
0.00859295
0.00851923
0.00964234
0.0094933
0.00936644
0.00927138
0.00921234
0.00914699
0.00910561
0.00905555
0.0089879
0.00894332
0.00886696
0.00877443
0.00868895
0.00859295
0.00851923
SCALARS Solute_Concentration_Ca++ float 1
LOOKUP_TABLE default
9.0701e-05
9.07016e-05
9.07021e-05
9.07027e-05
9.07031e-05
9.07039e-05
9.07048e-05
9.07057e-05
9.07067e-05
9.07077e-05
9.07086e-05
9.07095e-05
9.07104e-05
9.07113e-05
9.07122e-05
9.0701e-05
9.07016e-05
9.07021e-05
9.07027e-05
9.07031e-05
9.07039e-05
9.07048e-05
9.07057e-05
9.07067e-05
9.07077e-05
9.07086e-05
9.07095e-05
9.07104e-05
9.07113e-05
9.07122e-05
9.0701e-05
9.07016e-05
9.07021e-05
9.07027e-05
9.07031e-05
9.07039e-05
9.07048e-05
9.07057e-05
9.07067e-05
9.07077e-05
9.07086e-05
9.07095e-05
9.07104e-05
9.07113e-05
9.07122e-05
9.0701e-05
9.07016e-05
9.07021e-05
9.07027e-05
9.07031e-05
9.07039e-05
9.07048e-05
9.07057e-05
9.07067e-05
9.07077e-05
9.07086e-05
9.07095e-05
9.07104e-05
9.07113e-05
9.07122e-05
SCALARS Solute_Concentration_Cl- float 1
LOOKUP_TABLE default
0.000465
0.000465
0.000465
0.000465
0.000465
0.000465
0.000465
0.000465
0.000465
0.000465
0.000465
0.000465
0.000465
0.000465
0.000465
0.000465
0.000465
0.000465
0.000465
0.000465
0.000465
0.000465
0.000465
0.000465
0.000465
0.000465
0.000465
0.000465
0.000465
0.000465
0.000465
0.000465
0.000465
0.000465
0.000465
0.000465
0.000465
0.000465
0.000465
0.000465
0.000465
0.000465
0.000465
0.000465
0.000465
0.000465
0.000465
0.000465
0.000465
0.000465
0.000465
0.000465
0.000465
0.000465
0.000465
0.000465
0.000465
0.000465
0.000465
0.000465
SCALARS Solute_Concentration_Fe++ float 1
LOOKUP_TABLE default
2.0998e-08
3.17274e-08
4.30936e-08
5.31417e-08
6.28811e-08
7.76673e-08
9.6105e-08
1.13267e-07
1.34249e-07
1.53977e-07
1.72772e-07
1.90613e-07
2.0914e-07
2.26572e-07
2.43091e-07
2.0998e-08
3.17274e-08
4.30936e-08
5.31417e-08
6.28811e-08
7.76673e-08
9.6105e-08
1.13267e-07
1.34249e-07
1.53977e-07
1.72772e-07
1.90613e-07
2.0914e-07
2.26572e-07
2.43091e-07
2.0998e-08
3.17274e-08
4.30936e-08
5.31417e-08
6.28811e-08
7.76673e-08
9.6105e-08
1.13267e-07
1.34249e-07
1.53977e-07
1.72772e-07
1.90613e-07
2.0914e-07
2.26572e-07
2.43091e-07
2.0998e-08
3.17274e-08
4.30936e-08
5.31417e-08
6.28811e-08
7.76673e-08
9.6105e-08
1.13267e-07
1.34249e-07
1.53977e-07
1.72772e-07
1.90613e-07
2.0914e-07
2.26572e-07
2.43091e-07
SCALARS Solute_Concentration_Fe+++ float 1
LOOKUP_TABLE default
8.35922e-09
1.2651e-08
1.71974e-08
2.12167e-08
2.51124e-08
3.10269e-08
3.8402e-08
4.52668e-08
5.36594e-08
6.15509e-08
6.90689e-08
7.62052e-08
8.36161e-08
9.05887e-08
9.71965e-08
8.35922e-09
1.2651e-08
1.71974e-08
2.12167e-08
2.51124e-08
3.10269e-08
3.8402e-08
4.52668e-08
5.36594e-08
6.15509e-08
6.90689e-08
7.62052e-08
8.36161e-08
9.05887e-08
9.71965e-08
8.35922e-09
1.2651e-08
1.71974e-08
2.12167e-08
2.51124e-08
3.10269e-08
3.8402e-08
4.52668e-08
5.36594e-08
6.15509e-08
6.90689e-08
7.62052e-08
8.36161e-08
9.05887e-08
9.71965e-08
8.35922e-09
1.2651e-08
1.71974e-08
2.12167e-08
2.51124e-08
3.10269e-08
3.8402e-08
4.52668e-08
5.36594e-08
6.15509e-08
6.90689e-08
7.62052e-08
8.36161e-08
9.05887e-08
9.71965e-08
SCALARS Solute_Concentration_H+ float 1
LOOKUP_TABLE default
-4.2519e-05
-5.2825e-05
-6.1633e-05
-6.80701e-05
-7.1606e-05
-7.47814e-05
-7.53747e-05
-7.63832e-05
-7.87919e-05
-7.93639e-05
-8.22268e-05
-8.6483e-05
-9.01021e-05
-9.45525e-05
-9.75938e-05
-4.2519e-05
-5.2825e-05
-6.1633e-05
-6.80701e-05
-7.1606e-05
-7.47814e-05
-7.53747e-05
-7.63832e-05
-7.87919e-05
-7.93639e-05
-8.22268e-05
-8.6483e-05
-9.01021e-05
-9.45525e-05
-9.75938e-05
-4.2519e-05
-5.2825e-05
-6.1633e-05
-6.80701e-05
-7.1606e-05
-7.47814e-05
-7.53747e-05
-7.63832e-05
-7.87919e-05
-7.93639e-05
-8.22268e-05
-8.6483e-05
-9.01021e-05
-9.45525e-05
-9.75938e-05
-4.2519e-05
-5.2825e-05
-6.1633e-05
-6.80701e-05
-7.1606e-05
-7.47814e-05
-7.53747e-05
-7.63832e-05
-7.87919e-05
-7.93639e-05
-8.22268e-05
-8.6483e-05
-9.01021e-05
-9.45525e-05
-9.75938e-05
SCALARS Solute_Concentration_K+ float 1
LOOKUP_TABLE default
1.89683e-05
2.0249e-05
2.15253e-05
2.27914e-05
2.41017e-05
2.62209e-05
2.84953e-05
3.09354e-05
3.33257e-05
3.55583e-05
3.78959e-05
4.00428e-05
4.20981e-05
4.40162e-05
4.58067e-05
1.89683e-05
2.0249e-05
2.15253e-05
2.27914e-05
2.41017e-05
2.62209e-05
2.84953e-05
3.09354e-05
3.33257e-05
3.55583e-05
3.78959e-05
4.00428e-05
4.20981e-05
4.40162e-05
4.58067e-05
1.89683e-05
2.0249e-05
2.15253e-05
2.27914e-05
2.41017e-05
2.62209e-05
2.84953e-05
3.09354e-05
3.33257e-05
3.55583e-05
3.78959e-05
4.00428e-05
4.20981e-05
4.40162e-05
4.58067e-05
1.89683e-05
2.0249e-05
2.15253e-05
2.27914e-05
2.41017e-05
2.62209e-05
2.84953e-05
3.09354e-05
3.33257e-05
3.55583e-05
3.78959e-05
4.00428e-05
4.20981e-05
4.40162e-05
4.58067e-05
SCALARS Solute_Concentration_Mg++ float 1
LOOKUP_TABLE default
6.88481e-05
6.88727e-05
6.88989e-05
6.8922e-05
6.89444e-05
6.89784e-05
6.90208e-05
6.90603e-05
6.91085e-05
6.91539e-05
6.91972e-05
6.92382e-05
6.92808e-05
6.93209e-05
6.93589e-05
6.88481e-05
6.88727e-05
6.88989e-05
6.8922e-05
6.89444e-05
6.89784e-05
6.90208e-05
6.90603e-05
6.91085e-05
6.91539e-05
6.91972e-05
6.92382e-05
6.92808e-05
6.93209e-05
6.93589e-05
6.88481e-05
6.88727e-05
6.88989e-05
6.8922e-05
6.89444e-05
6.89784e-05
6.90208e-05
6.90603e-05
6.91085e-05
6.91539e-05
6.91972e-05
6.92382e-05
6.92808e-05
6.93209e-05
6.93589e-05
6.88481e-05
6.88727e-05
6.88989e-05
6.8922e-05
6.89444e-05
6.89784e-05
6.90208e-05
6.90603e-05
6.91085e-05
6.91539e-05
6.91972e-05
6.92382e-05
6.92808e-05
6.93209e-05
6.93589e-05
SCALARS Solute_Concentration_NO3- float 1
LOOKUP_TABLE default
0.0001
0.0001
0.0001
0.0001
0.0001
0.0001
0.0001
0.0001
0.0001
0.0001
0.0001
0.0001
0.0001
0.0001
0.0001
0.0001
0.0001
0.0001
0.0001
0.0001
0.0001
0.0001
0.0001
0.0001
0.0001
0.0001
0.0001
0.0001
0.0001
0.0001
0.0001
0.0001
0.0001
0.0001
0.0001
0.0001
0.0001
0.0001
0.0001
0.0001
0.0001
0.0001
0.0001
0.0001
0.0001
0.0001
0.0001
0.0001
0.0001
0.0001
0.0001
0.0001
0.0001
0.0001
0.0001
0.0001
0.0001
0.0001
0.0001
0.0001
SCALARS Solute_Concentration_Na+ float 1
LOOKUP_TABLE default
0.000428932
0.00043073
0.000432588
0.0004344
0.000436098
0.000438786
0.000442225
0.000445836
0.000449272
0.000452458
0.000455878
0.000459208
0.000462517
0.000465937
0.000468632
0.000428932
0.00043073
0.000432588
0.0004344
0.000436098
0.000438786
0.000442225
0.000445836
0.000449272
0.000452458
0.000455878
0.000459208
0.000462517
0.000465937
0.000468632
0.000428932
0.00043073
0.000432588
0.0004344
0.000436098
0.000438786
0.000442225
0.000445836
0.000449272
0.000452458
0.000455878
0.000459208
0.000462517
0.000465937
0.000468632
0.000428932
0.00043073
0.000432588
0.0004344
0.000436098
0.000438786
0.000442225
0.000445836
0.000449272
0.000452458
0.000455878
0.000459208
0.000462517
0.000465937
0.000468632
SCALARS Solute_Concentration_SO4-- float 1
LOOKUP_TABLE default
0.000161
0.000161
0.000161
0.000161
0.000161
0.000161
0.000161
0.000161
0.000161
0.000161
0.000161
0.000161
0.000161
0.000161
0.000161
0.000161
0.000161
0.000161
0.000161
0.000161
0.000161
0.000161
0.000161
0.000161
0.000161
0.000161
0.000161
0.000161
0.000161
0.000161
0.000161
0.000161
0.000161
0.000161
0.000161
0.000161
0.000161
0.000161
0.000161
0.000161
0.000161
0.000161
0.000161
0.000161
0.000161
0.000161
0.000161
0.000161
0.000161
0.000161
0.000161
0.000161
0.000161
0.000161
0.000161
0.000161
0.000161
0.000161
0.000161
0.000161
SCALARS Solute_Concentration_SiO2(aq) float 1
LOOKUP_TABLE default
2.03017e-05
2.88766e-05
3.70441e-05
4.43254e-05
5.05245e-05
5.96054e-05
6.93382e-05
7.97699e-05
9.02986e-05
9.95322e-05
0.000110095
0.000120655
0.000130814
0.000141206
0.000149706
2.03017e-05
2.88766e-05
3.70441e-05
4.43254e-05
5.05245e-05
5.96054e-05
6.93382e-05
7.97699e-05
9.02986e-05
9.95322e-05
0.000110095
0.000120655
0.000130814
0.000141206
0.000149706
2.03017e-05
2.88766e-05
3.70441e-05
4.43254e-05
5.05245e-05
5.96054e-05
6.93382e-05
7.97699e-05
9.02986e-05
9.95322e-05
0.000110095
0.000120655
0.000130814
0.000141206
0.000149706
2.03017e-05
2.88766e-05
3.70441e-05
4.43254e-05
5.05245e-05
5.96054e-05
6.93382e-05
7.97699e-05
9.02986e-05
9.95322e-05
0.000110095
0.000120655
0.000130814
0.000141206
0.000149706
SCALARS Solute_Concentration_Sr++ float 1
LOOKUP_TABLE default
5.07e-07
5.07e-07
5.07e-07
5.07e-07
5.07e-07
5.07e-07
5.07e-07
5.07e-07
5.07e-07
5.07e-07
5.07e-07
5.07e-07
5.07e-07
5.07e-07
5.07e-07
5.07e-07
5.07e-07
5.07e-07
5.07e-07
5.07e-07
5.07e-07
5.07e-07
5.07e-07
5.07e-07
5.07e-07
5.07e-07
5.07e-07
5.07e-07
5.07e-07
5.07e-07
5.07e-07
5.07e-07
5.07e-07
5.07e-07
5.07e-07
5.07e-07
5.07e-07
5.07e-07
5.07e-07
5.07e-07
5.07e-07
5.07e-07
5.07e-07
5.07e-07
5.07e-07
5.07e-07
5.07e-07
5.07e-07
5.07e-07
5.07e-07
5.07e-07
5.07e-07
5.07e-07
5.07e-07
5.07e-07
5.07e-07
5.07e-07
5.07e-07
5.07e-07
5.07e-07
SCALARS Reaction_rates_Moles_per_L_porusmedium_per_second_Albite float 1
LOOKUP_TABLE default
1.24993e-16
1.26242e-15
7.24827e-15
1.47226e-14
3.55173e-14
5.64539e-14
7.16344e-14
7.35283e-14
6.41013e-14
6.95899e-14
6.43266e-14
5.45646e-14
6.00298e-14
5.77319e-14
6.03845e-14
1.24993e-16
1.26242e-15
7.24827e-15
1.47226e-14
3.55173e-14
5.64539e-14
7.16344e-14
7.35283e-14
6.41013e-14
6.95899e-14
6.43266e-14
5.45646e-14
6.00298e-14
5.77319e-14
6.03845e-14
1.24993e-16
1.26242e-15
7.24827e-15
1.47226e-14
3.55173e-14
5.64539e-14
7.16344e-14
7.35283e-14
6.41013e-14
6.95899e-14
6.43266e-14
5.45646e-14
6.00298e-14
5.77319e-14
6.03845e-14
1.24993e-16
1.26242e-15
7.24827e-15
1.47226e-14
3.55173e-14
5.64539e-14
7.16344e-14
7.35283e-14
6.41013e-14
6.95899e-14
6.43266e-14
5.45646e-14
6.00298e-14
5.77319e-14
6.03845e-14
SCALARS Reaction_rates_Moles_per_L_porusmedium_per_second_Quartz float 1
LOOKUP_TABLE default
-3.74274e-14
-3.59755e-14
-3.58475e-14
-3.3978e-14
-3.84667e-14
-4.86591e-14
-4.28169e-14
-4.46085e-14
-4.45025e-14
-4.21593e-14
-4.33433e-14
-3.99805e-14
-4.09584e-14
-3.8104e-14
-4.27348e-14
-3.74274e-14
-3.59755e-14
-3.58475e-14
-3.3978e-14
-3.84667e-14
-4.86591e-14
-4.28169e-14
-4.46085e-14
-4.45025e-14
-4.21593e-14
-4.33433e-14
-3.99805e-14
-4.09584e-14
-3.8104e-14
-4.27348e-14
-3.74274e-14
-3.59755e-14
-3.58475e-14
-3.3978e-14
-3.84667e-14
-4.86591e-14
-4.28169e-14
-4.46085e-14
-4.45025e-14
-4.21593e-14
-4.33433e-14
-3.99805e-14
-4.09584e-14
-3.8104e-14
-4.27348e-14
-3.74274e-14
-3.59755e-14
-3.58475e-14
-3.3978e-14
-3.84667e-14
-4.86591e-14
-4.28169e-14
-4.46085e-14
-4.45025e-14
-4.21593e-14
-4.33433e-14
-3.99805e-14
-4.09584e-14
-3.8104e-14
-4.27348e-14
SCALARS Mineral_mass_fraction_Albite float 1
LOOKUP_TABLE default
0.508092
0.488127
0.500028
0.507802
0.494643
0.501191
0.499434
0.502013
0.499782
0.494524
0.509347
0.489821
0.507886
0.497816
0.501418
0.528517
0.489566
0.465495
0.508201
0.517843
0.496808
0.50427
0.493584
0.502593
0.504462
0.494515
0.502439
0.499402
0.498988
0.503515
0.526211
0.483427
0.516432
0.473021
0.502059
0.504532
0.498831
0.498548
0.499333
0.505606
0.499862
0.497198
0.503959
0.495722
0.501501
0.484258
0.504233
0.513748
0.510537
0.491323
0.494719
0.504287
0.504255
0.49423
0.501277
0.501826
0.497227
0.500837
0.501516
0.49994
SCALARS Mineral_mass_fraction_Quartz float 1
LOOKUP_TABLE default
0.491908
0.511873
0.499972
0.492198
0.505357
0.498809
0.500566
0.497987
0.500218
0.505476
0.490653
0.510179
0.492114
0.502184
0.498582
0.471483
0.510434
0.534505
0.491799
0.482157
0.503192
0.49573
0.506416
0.497407
0.495538
0.505485
0.497561
0.500598
0.501012
0.496485
0.473789
0.516573
0.483568
0.526979
0.497941
0.495468
0.501169
0.501452
0.500667
0.494394
0.500138
0.502802
0.496041
0.504278
0.498499
0.515742
0.495767
0.486252
0.489463
0.508677
0.505281
0.495713
0.495745
0.50577
0.498723
0.498174
0.502773
0.499163
0.498484
0.50006
SCALARS Mineral_depletion_ratio_Albite float 1
LOOKUP_TABLE default
17542.2
17588.3
17451.1
17437.1
17555.9
13030.8
13353.6
13932.3
14291.1
13958.6
13083.8
14571.9
13319.3
13731
13215.8
15489.3
18032.2
15166.1
17719.7
16883.6
13364.2
14501.3
14364.3
13550.3
13723.5
13276.4
14221
13644.3
13944.2
12632.9
16669.8
16734
16985.9
15477.4
16225.1
13767.3
13894.4
14096
13827.2
13752.3
13450.9
13685
14384.7
13885.8
13248
16916.8
16871.3
16838.7
16864.5
16906.2
13992.6
14470.4
13242.7
14070
13939.1
12844.1
13186.5
13575
13791.1
12926.3
SCALARS Mineral_depletion_ratio_Quartz float 1
LOOKUP_TABLE default
16613.9
16428.9
16505.6
16466.4
16406.3
13292.6
14036.3
13992
13842.9
13672.3
14111.3
14882.8
13208
13499.4
13532.4
14754.4
17998
17174.9
17780.2
15428.7
13556.1
13795.8
13333.1
13079.1
13581.8
14143.5
13412.3
13393.3
13485.2
13851.9
15850.2
17044.1
16674.9
16910.2
17662.3
13855.8
13544
13051.1
13139.7
14861.7
14442.6
13988.1
13722.9
13621.7
14022.5
16656.6
16558.8
16740
16554.8
16630.6
13491.5
14383.7
13593.1
13894.5
13720.7
13547.6
14132.5
12814.4
13984.4
13806.4
