# vtk DataFile Version 2.0
Unstructured Grid Ptrack_cells
ASCII

DATASET UNSTRUCTURED_GRID
POINTS 80 float
0 99.9806 0.0
0 99.8794 0.0
0 99.7783 0.0
0 99.6772 0.0
0 99.5761 0.0
0 99.475 0.0
0 99.3256 0.0
0 99.1761 0.0
0 99.0267 0.0
0 98.8772 0.0
0 98.7278 0.0
0 98.5783 0.0
0 98.4289 0.0
0 98.2794 0.0
0 98.13 0.0
0 97.9806 0.0
0.1 99.9806 0.0
0.1 99.8794 0.0
0.1 99.7783 0.0
0.1 99.6772 0.0
0.1 99.5761 0.0
0.1 99.475 0.0
0.1 99.3256 0.0
0.1 99.1761 0.0
0.1 99.0267 0.0
0.1 98.8772 0.0
0.1 98.7278 0.0
0.1 98.5783 0.0
0.1 98.4289 0.0
0.1 98.2794 0.0
0.1 98.13 0.0
0.1 97.9806 0.0
0.2 99.9806 0.0
0.2 99.8794 0.0
0.2 99.7783 0.0
0.2 99.6772 0.0
0.2 99.5761 0.0
0.2 99.475 0.0
0.2 99.3256 0.0
0.2 99.1761 0.0
0.2 99.0267 0.0
0.2 98.8772 0.0
0.2 98.7278 0.0
0.2 98.5783 0.0
0.2 98.4289 0.0
0.2 98.2794 0.0
0.2 98.13 0.0
0.2 97.9806 0.0
0.3 99.9806 0.0
0.3 99.8794 0.0
0.3 99.7783 0.0
0.3 99.6772 0.0
0.3 99.5761 0.0
0.3 99.475 0.0
0.3 99.3256 0.0
0.3 99.1761 0.0
0.3 99.0267 0.0
0.3 98.8772 0.0
0.3 98.7278 0.0
0.3 98.5783 0.0
0.3 98.4289 0.0
0.3 98.2794 0.0
0.3 98.13 0.0
0.3 97.9806 0.0
0.4 99.9806 0.0
0.4 99.8794 0.0
0.4 99.7783 0.0
0.4 99.6772 0.0
0.4 99.5761 0.0
0.4 99.475 0.0
0.4 99.3256 0.0
0.4 99.1761 0.0
0.4 99.0267 0.0
0.4 98.8772 0.0
0.4 98.7278 0.0
0.4 98.5783 0.0
0.4 98.4289 0.0
0.4 98.2794 0.0
0.4 98.13 0.0
0.4 97.9806 0.0

CELLS 60 300
4 0 16 17 1
4 1 17 18 2
4 2 18 19 3
4 3 19 20 4
4 4 20 21 5
4 5 21 22 6
4 6 22 23 7
4 7 23 24 8
4 8 24 25 9
4 9 25 26 10
4 10 26 27 11
4 11 27 28 12
4 12 28 29 13
4 13 29 30 14
4 14 30 31 15
4 16 32 33 17
4 17 33 34 18
4 18 34 35 19
4 19 35 36 20
4 20 36 37 21
4 21 37 38 22
4 22 38 39 23
4 23 39 40 24
4 24 40 41 25
4 25 41 42 26
4 26 42 43 27
4 27 43 44 28
4 28 44 45 29
4 29 45 46 30
4 30 46 47 31
4 32 48 49 33
4 33 49 50 34
4 34 50 51 35
4 35 51 52 36
4 36 52 53 37
4 37 53 54 38
4 38 54 55 39
4 39 55 56 40
4 40 56 57 41
4 41 57 58 42
4 42 58 59 43
4 43 59 60 44
4 44 60 61 45
4 45 61 62 46
4 46 62 63 47
4 48 64 65 49
4 49 65 66 50
4 50 66 67 51
4 51 67 68 52
4 52 68 69 53
4 53 69 70 54
4 54 70 71 55
4 55 71 72 56
4 56 72 73 57
4 57 73 74 58
4 58 74 75 59
4 59 75 76 60
4 60 76 77 61
4 61 77 78 62
4 62 78 79 63

CELL_TYPES 60
9
9
9
9
9
9
9
9
9
9
9
9
9
9
9
9
9
9
9
9
9
9
9
9
9
9
9
9
9
9
9
9
9
9
9
9
9
9
9
9
9
9
9
9
9
9
9
9
9
9
9
9
9
9
9
9
9
9
9
9

CELL_DATA 60
SCALARS SOIL_OR_PARENT int 1
LOOKUP_TABLE default
1
1
1
1
1
0
0
0
0
0
0
0
0
0
0
1
1
1
1
1
0
0
0
0
0
0
0
0
0
0
1
1
1
1
1
0
0
0
0
0
0
0
0
0
0
1
1
1
1
1
0
0
0
0
0
0
0
0
0
0
SCALARS CELL_NUM int 1
LOOKUP_TABLE default
0
1
2
3
4
5
6
7
8
9
10
11
12
13
14
15
16
17
18
19
20
21
22
23
24
25
26
27
28
29
30
31
32
33
34
35
36
37
38
39
40
41
42
43
44
45
46
47
48
49
50
51
52
53
54
55
56
57
58
59
SCALARS Mineral_volume_percents_Albite float 1
LOOKUP_TABLE default
1.01036e+06
948769
921693
1.04096e+06
889083
943430
948633
981040
945820
966466
966992
943146
968125
952543
903921
1.06162e+06
902624
969674
988114
882398
950050
974590
957678
965484
970876
945696
959330
957611
963680
897799
996188
934757
1.01723e+06
944114
933082
970689
944074
970596
957100
967176
950529
960425
980325
941516
901578
963171
894660
954389
1.065e+06
926417
967658
958831
948711
964562
958498
966067
949735
954649
978666
892525
SCALARS Mineral_volume_percents_Quartz float 1
LOOKUP_TABLE default
959127
953711
934909
983688
969642
957199
954227
964360
948045
978442
945401
979419
951594
954746
894106
968455
836515
1.12492e+06
906617
946717
975046
935194
957668
957283
973964
954323
957607
976197
950495
888158
898360
1.08467e+06
1.04513e+06
870844
922343
951817
971488
953053
962310
954815
950199
973102
964126
965113
880687
935263
962897
997089
944850
949255
978227
950189
964493
959759
954169
945620
970607
963742
964030
894150
SCALARS Mineral_specific_surface_area_m2perg_Albite float 1
LOOKUP_TABLE default
0.090566
0.090566
0.090566
0.090566
0.090566
0.090566
0.090566
0.090566
0.090566
0.090566
0.090566
0.090566
0.090566
0.090566
0.090566
0.090566
0.090566
0.090566
0.090566
0.090566
0.090566
0.090566
0.090566
0.090566
0.090566
0.090566
0.090566
0.090566
0.090566
0.090566
0.090566
0.090566
0.090566
0.090566
0.090566
0.090566
0.090566
0.090566
0.090566
0.090566
0.090566
0.090566
0.090566
0.090566
0.090566
0.090566
0.090566
0.090566
0.090566
0.090566
0.090566
0.090566
0.090566
0.090566
0.090566
0.090566
0.090566
0.090566
0.090566
0.090566
SCALARS Mineral_specific_surface_area_m2perg_Quartz float 1
LOOKUP_TABLE default
0.090566
0.090566
0.090566
0.090566
0.090566
0.090566
0.090566
0.090566
0.090566
0.090566
0.090566
0.090566
0.090566
0.090566
0.090566
0.090566
0.090566
0.090566
0.090566
0.090566
0.090566
0.090566
0.090566
0.090566
0.090566
0.090566
0.090566
0.090566
0.090566
0.090566
0.090566
0.090566
0.090566
0.090566
0.090566
0.090566
0.090566
0.090566
0.090566
0.090566
0.090566
0.090566
0.090566
0.090566
0.090566
0.090566
0.090566
0.090566
0.090566
0.090566
0.090566
0.090566
0.090566
0.090566
0.090566
0.090566
0.090566
0.090566
0.090566
0.090566
SCALARS Mineral_mass_kg_Albite float 1
LOOKUP_TABLE default
270721
254217
246962
278920
238225
373625
375685
388519
374571
382747
382956
373512
383404
377234
357978
284456
241853
259819
264760
236434
376246
385965
379267
382358
384494
374522
379921
379241
381644
355553
266923
250463
272560
252970
250014
384420
373880
384383
379038
383029
376436
380355
388236
372866
357050
258076
239719
255723
285360
248228
383219
379724
375716
381993
379592
382589
376121
378068
387579
353465
SCALARS Mineral_mass_kg_Quartz float 1
LOOKUP_TABLE default
256993
255542
250504
263574
259810
379077
377900
381913
375452
387490
374405
387877
376858
378106
354091
259492
224140
301415
242923
253668
386145
370363
379263
379111
385717
377938
379239
386601
376422
351735
240710
290632
280037
233338
247137
376946
384736
377436
381102
378133
376305
385375
381821
382212
348777
250599
258003
267165
253167
254347
387405
376301
381966
380091
377878
374492
384387
381669
381783
354108
SCALARS Mineral_surface_area_m2_Albite float 1
LOOKUP_TABLE default
2.45181e+07
2.30235e+07
2.23664e+07
2.52607e+07
2.15751e+07
3.38377e+07
3.40243e+07
3.51866e+07
3.39234e+07
3.46639e+07
3.46828e+07
3.38275e+07
3.47234e+07
3.41646e+07
3.24206e+07
2.57621e+07
2.19037e+07
2.35308e+07
2.39782e+07
2.14129e+07
3.40751e+07
3.49553e+07
3.43487e+07
3.46287e+07
3.48221e+07
3.3919e+07
3.4408e+07
3.43463e+07
3.4564e+07
3.2201e+07
2.41742e+07
2.26834e+07
2.46847e+07
2.29105e+07
2.26428e+07
3.48154e+07
3.38608e+07
3.4812e+07
3.4328e+07
3.46894e+07
3.40923e+07
3.44473e+07
3.5161e+07
3.3769e+07
3.23366e+07
2.3373e+07
2.17104e+07
2.31598e+07
2.58439e+07
2.2481e+07
3.47067e+07
3.43901e+07
3.40271e+07
3.45956e+07
3.43781e+07
3.46496e+07
3.40638e+07
3.42401e+07
3.51015e+07
3.20119e+07
SCALARS Mineral_surface_area_m2_Quartz float 1
LOOKUP_TABLE default
2.32748e+07
2.31434e+07
2.26871e+07
2.38708e+07
2.353e+07
3.43315e+07
3.42249e+07
3.45884e+07
3.40032e+07
3.50934e+07
3.39084e+07
3.51285e+07
3.41305e+07
3.42436e+07
3.20686e+07
2.35012e+07
2.02994e+07
2.7298e+07
2.20006e+07
2.29737e+07
3.49717e+07
3.35423e+07
3.43484e+07
3.43346e+07
3.49328e+07
3.42284e+07
3.43462e+07
3.50129e+07
3.40911e+07
3.18553e+07
2.18002e+07
2.63214e+07
2.53618e+07
2.11325e+07
2.23822e+07
3.41385e+07
3.4844e+07
3.41828e+07
3.45149e+07
3.4246e+07
3.40805e+07
3.49019e+07
3.458e+07
3.46154e+07
3.15873e+07
2.26957e+07
2.33663e+07
2.4196e+07
2.29284e+07
2.30352e+07
3.50858e+07
3.40801e+07
3.45932e+07
3.44234e+07
3.42229e+07
3.39162e+07
3.48124e+07
3.45662e+07
3.45765e+07
3.20702e+07
SCALARS Solute_Concentration_Al+++ float 1
LOOKUP_TABLE default
6.13522e-06
8.5158e-06
1.03771e-05
1.14705e-05
1.16207e-05
1.10378e-05
9.28239e-06
7.55658e-06
6.36187e-06
4.69461e-06
3.68021e-06
3.22612e-06
2.59559e-06
2.25382e-06
1.72905e-06
6.13522e-06
8.5158e-06
1.03771e-05
1.14705e-05
1.16207e-05
1.10378e-05
9.28239e-06
7.55658e-06
6.36187e-06
4.69461e-06
3.68021e-06
3.22612e-06
2.59559e-06
2.25382e-06
1.72905e-06
6.13522e-06
8.5158e-06
1.03771e-05
1.14705e-05
1.16207e-05
1.10378e-05
9.28239e-06
7.55658e-06
6.36187e-06
4.69461e-06
3.68021e-06
3.22612e-06
2.59559e-06
2.25382e-06
1.72905e-06
6.13522e-06
8.5158e-06
1.03771e-05
1.14705e-05
1.16207e-05
1.10378e-05
9.28239e-06
7.55658e-06
6.36187e-06
4.69461e-06
3.68021e-06
3.22612e-06
2.59559e-06
2.25382e-06
1.72905e-06
SCALARS Solute_Concentration_CO2(aq) float 1
LOOKUP_TABLE default
0.00964234
0.0094933
0.00936644
0.00927138
0.00921234
0.00914699
0.00910561
0.00905555
0.0089879
0.00894332
0.00886696
0.00877443
0.00868895
0.00859295
0.00851923
0.00964234
0.0094933
0.00936644
0.00927138
0.00921234
0.00914699
0.00910561
0.00905555
0.0089879
0.00894332
0.00886696
0.00877443
0.00868895
0.00859295
0.00851923
0.00964234
0.0094933
0.00936644
0.00927138
0.00921234
0.00914699
0.00910561
0.00905555
0.0089879
0.00894332
0.00886696
0.00877443
0.00868895
0.00859295
0.00851923
0.00964234
0.0094933
0.00936644
0.00927138
0.00921234
0.00914699
0.00910561
0.00905555
0.0089879
0.00894332
0.00886696
0.00877443
0.00868895
0.00859295
0.00851923
SCALARS Solute_Concentration_Ca++ float 1
LOOKUP_TABLE default
9.0701e-05
9.07016e-05
9.07021e-05
9.07027e-05
9.07031e-05
9.07039e-05
9.07048e-05
9.07057e-05
9.07067e-05
9.07077e-05
9.07086e-05
9.07095e-05
9.07104e-05
9.07113e-05
9.07122e-05
9.0701e-05
9.07016e-05
9.07021e-05
9.07027e-05
9.07031e-05
9.07039e-05
9.07048e-05
9.07057e-05
9.07067e-05
9.07077e-05
9.07086e-05
9.07095e-05
9.07104e-05
9.07113e-05
9.07122e-05
9.0701e-05
9.07016e-05
9.07021e-05
9.07027e-05
9.07031e-05
9.07039e-05
9.07048e-05
9.07057e-05
9.07067e-05
9.07077e-05
9.07086e-05
9.07095e-05
9.07104e-05
9.07113e-05
9.07122e-05
9.0701e-05
9.07016e-05
9.07021e-05
9.07027e-05
9.07031e-05
9.07039e-05
9.07048e-05
9.07057e-05
9.07067e-05
9.07077e-05
9.07086e-05
9.07095e-05
9.07104e-05
9.07113e-05
9.07122e-05
SCALARS Solute_Concentration_Cl- float 1
LOOKUP_TABLE default
0.000465
0.000465
0.000465
0.000465
0.000465
0.000465
0.000465
0.000465
0.000465
0.000465
0.000465
0.000465
0.000465
0.000465
0.000465
0.000465
0.000465
0.000465
0.000465
0.000465
0.000465
0.000465
0.000465
0.000465
0.000465
0.000465
0.000465
0.000465
0.000465
0.000465
0.000465
0.000465
0.000465
0.000465
0.000465
0.000465
0.000465
0.000465
0.000465
0.000465
0.000465
0.000465
0.000465
0.000465
0.000465
0.000465
0.000465
0.000465
0.000465
0.000465
0.000465
0.000465
0.000465
0.000465
0.000465
0.000465
0.000465
0.000465
0.000465
0.000465
SCALARS Solute_Concentration_Fe++ float 1
LOOKUP_TABLE default
2.0998e-08
3.17274e-08
4.30936e-08
5.31417e-08
6.28811e-08
7.76673e-08
9.6105e-08
1.13267e-07
1.34249e-07
1.53977e-07
1.72772e-07
1.90613e-07
2.0914e-07
2.26572e-07
2.43091e-07
2.0998e-08
3.17274e-08
4.30936e-08
5.31417e-08
6.28811e-08
7.76673e-08
9.6105e-08
1.13267e-07
1.34249e-07
1.53977e-07
1.72772e-07
1.90613e-07
2.0914e-07
2.26572e-07
2.43091e-07
2.0998e-08
3.17274e-08
4.30936e-08
5.31417e-08
6.28811e-08
7.76673e-08
9.6105e-08
1.13267e-07
1.34249e-07
1.53977e-07
1.72772e-07
1.90613e-07
2.0914e-07
2.26572e-07
2.43091e-07
2.0998e-08
3.17274e-08
4.30936e-08
5.31417e-08
6.28811e-08
7.76673e-08
9.6105e-08
1.13267e-07
1.34249e-07
1.53977e-07
1.72772e-07
1.90613e-07
2.0914e-07
2.26572e-07
2.43091e-07
SCALARS Solute_Concentration_Fe+++ float 1
LOOKUP_TABLE default
8.35922e-09
1.2651e-08
1.71974e-08
2.12167e-08
2.51124e-08
3.10269e-08
3.8402e-08
4.52668e-08
5.36594e-08
6.15509e-08
6.90689e-08
7.62052e-08
8.36161e-08
9.05887e-08
9.71965e-08
8.35922e-09
1.2651e-08
1.71974e-08
2.12167e-08
2.51124e-08
3.10269e-08
3.8402e-08
4.52668e-08
5.36594e-08
6.15509e-08
6.90689e-08
7.62052e-08
8.36161e-08
9.05887e-08
9.71965e-08
8.35922e-09
1.2651e-08
1.71974e-08
2.12167e-08
2.51124e-08
3.10269e-08
3.8402e-08
4.52668e-08
5.36594e-08
6.15509e-08
6.90689e-08
7.62052e-08
8.36161e-08
9.05887e-08
9.71965e-08
8.35922e-09
1.2651e-08
1.71974e-08
2.12167e-08
2.51124e-08
3.10269e-08
3.8402e-08
4.52668e-08
5.36594e-08
6.15509e-08
6.90689e-08
7.62052e-08
8.36161e-08
9.05887e-08
9.71965e-08
SCALARS Solute_Concentration_H+ float 1
LOOKUP_TABLE default
-4.2519e-05
-5.2825e-05
-6.1633e-05
-6.80701e-05
-7.1606e-05
-7.47814e-05
-7.53747e-05
-7.63832e-05
-7.87919e-05
-7.93639e-05
-8.22268e-05
-8.6483e-05
-9.01021e-05
-9.45525e-05
-9.75938e-05
-4.2519e-05
-5.2825e-05
-6.1633e-05
-6.80701e-05
-7.1606e-05
-7.47814e-05
-7.53747e-05
-7.63832e-05
-7.87919e-05
-7.93639e-05
-8.22268e-05
-8.6483e-05
-9.01021e-05
-9.45525e-05
-9.75938e-05
-4.2519e-05
-5.2825e-05
-6.1633e-05
-6.80701e-05
-7.1606e-05
-7.47814e-05
-7.53747e-05
-7.63832e-05
-7.87919e-05
-7.93639e-05
-8.22268e-05
-8.6483e-05
-9.01021e-05
-9.45525e-05
-9.75938e-05
-4.2519e-05
-5.2825e-05
-6.1633e-05
-6.80701e-05
-7.1606e-05
-7.47814e-05
-7.53747e-05
-7.63832e-05
-7.87919e-05
-7.93639e-05
-8.22268e-05
-8.6483e-05
-9.01021e-05
-9.45525e-05
-9.75938e-05
SCALARS Solute_Concentration_K+ float 1
LOOKUP_TABLE default
1.89683e-05
2.0249e-05
2.15253e-05
2.27914e-05
2.41017e-05
2.62209e-05
2.84953e-05
3.09354e-05
3.33257e-05
3.55583e-05
3.78959e-05
4.00428e-05
4.20981e-05
4.40162e-05
4.58067e-05
1.89683e-05
2.0249e-05
2.15253e-05
2.27914e-05
2.41017e-05
2.62209e-05
2.84953e-05
3.09354e-05
3.33257e-05
3.55583e-05
3.78959e-05
4.00428e-05
4.20981e-05
4.40162e-05
4.58067e-05
1.89683e-05
2.0249e-05
2.15253e-05
2.27914e-05
2.41017e-05
2.62209e-05
2.84953e-05
3.09354e-05
3.33257e-05
3.55583e-05
3.78959e-05
4.00428e-05
4.20981e-05
4.40162e-05
4.58067e-05
1.89683e-05
2.0249e-05
2.15253e-05
2.27914e-05
2.41017e-05
2.62209e-05
2.84953e-05
3.09354e-05
3.33257e-05
3.55583e-05
3.78959e-05
4.00428e-05
4.20981e-05
4.40162e-05
4.58067e-05
SCALARS Solute_Concentration_Mg++ float 1
LOOKUP_TABLE default
6.88481e-05
6.88727e-05
6.88989e-05
6.8922e-05
6.89444e-05
6.89784e-05
6.90208e-05
6.90603e-05
6.91085e-05
6.91539e-05
6.91972e-05
6.92382e-05
6.92808e-05
6.93209e-05
6.93589e-05
6.88481e-05
6.88727e-05
6.88989e-05
6.8922e-05
6.89444e-05
6.89784e-05
6.90208e-05
6.90603e-05
6.91085e-05
6.91539e-05
6.91972e-05
6.92382e-05
6.92808e-05
6.93209e-05
6.93589e-05
6.88481e-05
6.88727e-05
6.88989e-05
6.8922e-05
6.89444e-05
6.89784e-05
6.90208e-05
6.90603e-05
6.91085e-05
6.91539e-05
6.91972e-05
6.92382e-05
6.92808e-05
6.93209e-05
6.93589e-05
6.88481e-05
6.88727e-05
6.88989e-05
6.8922e-05
6.89444e-05
6.89784e-05
6.90208e-05
6.90603e-05
6.91085e-05
6.91539e-05
6.91972e-05
6.92382e-05
6.92808e-05
6.93209e-05
6.93589e-05
SCALARS Solute_Concentration_NO3- float 1
LOOKUP_TABLE default
0.0001
0.0001
0.0001
0.0001
0.0001
0.0001
0.0001
0.0001
0.0001
0.0001
0.0001
0.0001
0.0001
0.0001
0.0001
0.0001
0.0001
0.0001
0.0001
0.0001
0.0001
0.0001
0.0001
0.0001
0.0001
0.0001
0.0001
0.0001
0.0001
0.0001
0.0001
0.0001
0.0001
0.0001
0.0001
0.0001
0.0001
0.0001
0.0001
0.0001
0.0001
0.0001
0.0001
0.0001
0.0001
0.0001
0.0001
0.0001
0.0001
0.0001
0.0001
0.0001
0.0001
0.0001
0.0001
0.0001
0.0001
0.0001
0.0001
0.0001
SCALARS Solute_Concentration_Na+ float 1
LOOKUP_TABLE default
0.000428932
0.00043073
0.000432588
0.0004344
0.000436098
0.000438786
0.000442225
0.000445836
0.000449272
0.000452458
0.000455878
0.000459208
0.000462517
0.000465937
0.000468632
0.000428932
0.00043073
0.000432588
0.0004344
0.000436098
0.000438786
0.000442225
0.000445836
0.000449272
0.000452458
0.000455878
0.000459208
0.000462517
0.000465937
0.000468632
0.000428932
0.00043073
0.000432588
0.0004344
0.000436098
0.000438786
0.000442225
0.000445836
0.000449272
0.000452458
0.000455878
0.000459208
0.000462517
0.000465937
0.000468632
0.000428932
0.00043073
0.000432588
0.0004344
0.000436098
0.000438786
0.000442225
0.000445836
0.000449272
0.000452458
0.000455878
0.000459208
0.000462517
0.000465937
0.000468632
SCALARS Solute_Concentration_SO4-- float 1
LOOKUP_TABLE default
0.000161
0.000161
0.000161
0.000161
0.000161
0.000161
0.000161
0.000161
0.000161
0.000161
0.000161
0.000161
0.000161
0.000161
0.000161
0.000161
0.000161
0.000161
0.000161
0.000161
0.000161
0.000161
0.000161
0.000161
0.000161
0.000161
0.000161
0.000161
0.000161
0.000161
0.000161
0.000161
0.000161
0.000161
0.000161
0.000161
0.000161
0.000161
0.000161
0.000161
0.000161
0.000161
0.000161
0.000161
0.000161
0.000161
0.000161
0.000161
0.000161
0.000161
0.000161
0.000161
0.000161
0.000161
0.000161
0.000161
0.000161
0.000161
0.000161
0.000161
SCALARS Solute_Concentration_SiO2(aq) float 1
LOOKUP_TABLE default
2.03017e-05
2.88766e-05
3.70441e-05
4.43254e-05
5.05245e-05
5.96054e-05
6.93382e-05
7.97699e-05
9.02986e-05
9.95322e-05
0.000110095
0.000120655
0.000130814
0.000141206
0.000149706
2.03017e-05
2.88766e-05
3.70441e-05
4.43254e-05
5.05245e-05
5.96054e-05
6.93382e-05
7.97699e-05
9.02986e-05
9.95322e-05
0.000110095
0.000120655
0.000130814
0.000141206
0.000149706
2.03017e-05
2.88766e-05
3.70441e-05
4.43254e-05
5.05245e-05
5.96054e-05
6.93382e-05
7.97699e-05
9.02986e-05
9.95322e-05
0.000110095
0.000120655
0.000130814
0.000141206
0.000149706
2.03017e-05
2.88766e-05
3.70441e-05
4.43254e-05
5.05245e-05
5.96054e-05
6.93382e-05
7.97699e-05
9.02986e-05
9.95322e-05
0.000110095
0.000120655
0.000130814
0.000141206
0.000149706
SCALARS Solute_Concentration_Sr++ float 1
LOOKUP_TABLE default
5.07e-07
5.07e-07
5.07e-07
5.07e-07
5.07e-07
5.07e-07
5.07e-07
5.07e-07
5.07e-07
5.07e-07
5.07e-07
5.07e-07
5.07e-07
5.07e-07
5.07e-07
5.07e-07
5.07e-07
5.07e-07
5.07e-07
5.07e-07
5.07e-07
5.07e-07
5.07e-07
5.07e-07
5.07e-07
5.07e-07
5.07e-07
5.07e-07
5.07e-07
5.07e-07
5.07e-07
5.07e-07
5.07e-07
5.07e-07
5.07e-07
5.07e-07
5.07e-07
5.07e-07
5.07e-07
5.07e-07
5.07e-07
5.07e-07
5.07e-07
5.07e-07
5.07e-07
5.07e-07
5.07e-07
5.07e-07
5.07e-07
5.07e-07
5.07e-07
5.07e-07
5.07e-07
5.07e-07
5.07e-07
5.07e-07
5.07e-07
5.07e-07
5.07e-07
5.07e-07
SCALARS Reaction_rates_Moles_per_L_porusmedium_per_second_Albite float 1
LOOKUP_TABLE default
1.24993e-16
1.26242e-15
7.24827e-15
1.47226e-14
3.55173e-14
5.64539e-14
7.16344e-14
7.35283e-14
6.41013e-14
6.95899e-14
6.43266e-14
5.45646e-14
6.00298e-14
5.77319e-14
6.03845e-14
1.24993e-16
1.26242e-15
7.24827e-15
1.47226e-14
3.55173e-14
5.64539e-14
7.16344e-14
7.35283e-14
6.41013e-14
6.95899e-14
6.43266e-14
5.45646e-14
6.00298e-14
5.77319e-14
6.03845e-14
1.24993e-16
1.26242e-15
7.24827e-15
1.47226e-14
3.55173e-14
5.64539e-14
7.16344e-14
7.35283e-14
6.41013e-14
6.95899e-14
6.43266e-14
5.45646e-14
6.00298e-14
5.77319e-14
6.03845e-14
1.24993e-16
1.26242e-15
7.24827e-15
1.47226e-14
3.55173e-14
5.64539e-14
7.16344e-14
7.35283e-14
6.41013e-14
6.95899e-14
6.43266e-14
5.45646e-14
6.00298e-14
5.77319e-14
6.03845e-14
SCALARS Reaction_rates_Moles_per_L_porusmedium_per_second_Quartz float 1
LOOKUP_TABLE default
-3.74274e-14
-3.59755e-14
-3.58475e-14
-3.3978e-14
-3.84667e-14
-4.86591e-14
-4.28169e-14
-4.46085e-14
-4.45025e-14
-4.21593e-14
-4.33433e-14
-3.99805e-14
-4.09584e-14
-3.8104e-14
-4.27348e-14
-3.74274e-14
-3.59755e-14
-3.58475e-14
-3.3978e-14
-3.84667e-14
-4.86591e-14
-4.28169e-14
-4.46085e-14
-4.45025e-14
-4.21593e-14
-4.33433e-14
-3.99805e-14
-4.09584e-14
-3.8104e-14
-4.27348e-14
-3.74274e-14
-3.59755e-14
-3.58475e-14
-3.3978e-14
-3.84667e-14
-4.86591e-14
-4.28169e-14
-4.46085e-14
-4.45025e-14
-4.21593e-14
-4.33433e-14
-3.99805e-14
-4.09584e-14
-3.8104e-14
-4.27348e-14
-3.74274e-14
-3.59755e-14
-3.58475e-14
-3.3978e-14
-3.84667e-14
-4.86591e-14
-4.28169e-14
-4.46085e-14
-4.45025e-14
-4.21593e-14
-4.33433e-14
-3.99805e-14
-4.09584e-14
-3.8104e-14
-4.27348e-14
SCALARS Mineral_mass_fraction_Albite float 1
LOOKUP_TABLE default
0.512879
0.498717
0.496481
0.514008
0.478562
0.496419
0.498548
0.504246
0.499421
0.496955
0.505589
0.490666
0.504264
0.499431
0.502703
0.522726
0.518793
0.463294
0.521284
0.48261
0.493577
0.51021
0.500005
0.502113
0.499217
0.497756
0.500447
0.495246
0.503411
0.502672
0.525551
0.463248
0.493302
0.519967
0.502865
0.504861
0.492921
0.504515
0.498659
0.503185
0.500088
0.496758
0.504126
0.493879
0.505799
0.507276
0.48183
0.489172
0.529597
0.493978
0.497315
0.502243
0.495921
0.501238
0.501122
0.505295
0.494624
0.497657
0.503731
0.499553
SCALARS Mineral_mass_fraction_Quartz float 1
LOOKUP_TABLE default
0.487121
0.501283
0.503519
0.485992
0.521438
0.503581
0.501452
0.495754
0.500579
0.503045
0.494411
0.509334
0.495736
0.500569
0.497297
0.477274
0.481207
0.536706
0.478716
0.51739
0.506423
0.48979
0.499995
0.497887
0.500783
0.502244
0.499553
0.504754
0.496589
0.497328
0.474449
0.536752
0.506698
0.480033
0.497135
0.495139
0.507079
0.495485
0.501341
0.496815
0.499912
0.503242
0.495874
0.506121
0.494201
0.492724
0.51817
0.510828
0.470403
0.506022
0.502685
0.497757
0.504079
0.498762
0.498878
0.494705
0.505376
0.502343
0.496269
0.500447
SCALARS Mineral_depletion_ratio_Albite float 1
LOOKUP_TABLE default
29375.3
29791.9
29558.2
29535
29516.6
22209.8
22938.2
23642.2
24420.3
23507
22364
24914.6
22454.8
23493.2
21802.4
29015.9
28821.4
27239.3
28388.1
27547.9
22972.1
24445.6
24525.5
23028.4
23086.8
22867.9
24104.5
23329.3
23583.3
20992.4
28378.2
27385.9
28751.4
27773.2
26215.6
23466
23650.9
23897
23531.9
23311.5
22948.9
23361.6
24246
23848.7
21360.5
28426.2
28569.9
28688.6
28498.4
28607.2
23935.8
24398.5
22632.4
24045.9
23529.7
21837.9
22489
23257.8
23374.4
21465.9
SCALARS Mineral_depletion_ratio_Quartz float 1
LOOKUP_TABLE default
27723.9
28038.5
27834.9
27891.9
27802.1
22730.9
23977.4
23781.3
23601.3
23093.1
24291.8
24798.5
22632.7
23119.2
22032.5
26050.1
24874.2
32809.3
28347.4
27718.7
23047.8
23615.3
22574.4
22367.8
23124.9
23942.1
22876.3
22639.9
23052.2
22983.8
27952.6
28838.2
28800.5
27595.7
28526.8
23731.1
22829.6
22237.5
22516.9
25344.8
24611.3
23666.5
23308.7
23227.1
22682.7
28112.3
28243
28234.5
28141.8
28264.6
22818.8
24531.7
23177.4
23560.1
23352.7
23288
23750.8
21909.4
23920.7
22483.3
