# vtk DataFile Version 2.0
Unstructured Grid Ptrack_cells
ASCII

DATASET UNSTRUCTURED_GRID
POINTS 80 float
0 99.9961 0.0
0 99.8959 0.0
0 99.7957 0.0
0 99.6954 0.0
0 99.5952 0.0
0 99.495 0.0
0 99.3451 0.0
0 99.1952 0.0
0 99.0453 0.0
0 98.8954 0.0
0 98.7456 0.0
0 98.5957 0.0
0 98.4458 0.0
0 98.2959 0.0
0 98.146 0.0
0 97.9961 0.0
0.1 99.9961 0.0
0.1 99.8959 0.0
0.1 99.7957 0.0
0.1 99.6954 0.0
0.1 99.5952 0.0
0.1 99.495 0.0
0.1 99.3451 0.0
0.1 99.1952 0.0
0.1 99.0453 0.0
0.1 98.8954 0.0
0.1 98.7456 0.0
0.1 98.5957 0.0
0.1 98.4458 0.0
0.1 98.2959 0.0
0.1 98.146 0.0
0.1 97.9961 0.0
0.2 99.9961 0.0
0.2 99.8959 0.0
0.2 99.7957 0.0
0.2 99.6954 0.0
0.2 99.5952 0.0
0.2 99.495 0.0
0.2 99.3451 0.0
0.2 99.1952 0.0
0.2 99.0453 0.0
0.2 98.8954 0.0
0.2 98.7456 0.0
0.2 98.5957 0.0
0.2 98.4458 0.0
0.2 98.2959 0.0
0.2 98.146 0.0
0.2 97.9961 0.0
0.3 99.9961 0.0
0.3 99.8959 0.0
0.3 99.7957 0.0
0.3 99.6954 0.0
0.3 99.5952 0.0
0.3 99.495 0.0
0.3 99.3451 0.0
0.3 99.1952 0.0
0.3 99.0453 0.0
0.3 98.8954 0.0
0.3 98.7456 0.0
0.3 98.5957 0.0
0.3 98.4458 0.0
0.3 98.2959 0.0
0.3 98.146 0.0
0.3 97.9961 0.0
0.4 99.9961 0.0
0.4 99.8959 0.0
0.4 99.7957 0.0
0.4 99.6954 0.0
0.4 99.5952 0.0
0.4 99.495 0.0
0.4 99.3451 0.0
0.4 99.1952 0.0
0.4 99.0453 0.0
0.4 98.8954 0.0
0.4 98.7456 0.0
0.4 98.5957 0.0
0.4 98.4458 0.0
0.4 98.2959 0.0
0.4 98.146 0.0
0.4 97.9961 0.0

CELLS 60 300
4 0 16 17 1
4 1 17 18 2
4 2 18 19 3
4 3 19 20 4
4 4 20 21 5
4 5 21 22 6
4 6 22 23 7
4 7 23 24 8
4 8 24 25 9
4 9 25 26 10
4 10 26 27 11
4 11 27 28 12
4 12 28 29 13
4 13 29 30 14
4 14 30 31 15
4 16 32 33 17
4 17 33 34 18
4 18 34 35 19
4 19 35 36 20
4 20 36 37 21
4 21 37 38 22
4 22 38 39 23
4 23 39 40 24
4 24 40 41 25
4 25 41 42 26
4 26 42 43 27
4 27 43 44 28
4 28 44 45 29
4 29 45 46 30
4 30 46 47 31
4 32 48 49 33
4 33 49 50 34
4 34 50 51 35
4 35 51 52 36
4 36 52 53 37
4 37 53 54 38
4 38 54 55 39
4 39 55 56 40
4 40 56 57 41
4 41 57 58 42
4 42 58 59 43
4 43 59 60 44
4 44 60 61 45
4 45 61 62 46
4 46 62 63 47
4 48 64 65 49
4 49 65 66 50
4 50 66 67 51
4 51 67 68 52
4 52 68 69 53
4 53 69 70 54
4 54 70 71 55
4 55 71 72 56
4 56 72 73 57
4 57 73 74 58
4 58 74 75 59
4 59 75 76 60
4 60 76 77 61
4 61 77 78 62
4 62 78 79 63

CELL_TYPES 60
9
9
9
9
9
9
9
9
9
9
9
9
9
9
9
9
9
9
9
9
9
9
9
9
9
9
9
9
9
9
9
9
9
9
9
9
9
9
9
9
9
9
9
9
9
9
9
9
9
9
9
9
9
9
9
9
9
9
9
9

CELL_DATA 60
SCALARS SOIL_OR_PARENT int 1
LOOKUP_TABLE default
1
1
1
1
1
0
0
0
0
0
0
0
0
0
0
1
1
1
1
1
0
0
0
0
0
0
0
0
0
0
1
1
1
1
1
0
0
0
0
0
0
0
0
0
0
1
1
1
1
1
0
0
0
0
0
0
0
0
0
0
SCALARS CELL_NUM int 1
LOOKUP_TABLE default
0
1
2
3
4
5
6
7
8
9
10
11
12
13
14
15
16
17
18
19
20
21
22
23
24
25
26
27
28
29
30
31
32
33
34
35
36
37
38
39
40
41
42
43
44
45
46
47
48
49
50
51
52
53
54
55
56
57
58
59
SCALARS Mineral_volume_percents_Albite float 1
LOOKUP_TABLE default
156210
179911
154074
154849
155492
159257
161949
159946
159142
160182
161168
159083
162094
159083
158199
154682
147373
165519
173573
166658
161415
161306
158806
160113
160524
160391
159905
160024
160036
158798
159786
172111
156097
176404
165865
160681
159070
161408
159647
160525
160316
158937
160947
160266
158433
162430
162610
167491
161224
145307
160014
159923
161518
159148
160623
160450
159669
160375
159322
159174
SCALARS Mineral_volume_percents_Quartz float 1
LOOKUP_TABLE default
149524
165477
157945
172576
153296
159738
159212
161571
159732
160419
159475
159161
160018
161492
157266
155228
155304
169319
173731
157510
158995
160065
161840
158827
159831
160613
160159
159360
160022
158331
162478
175002
177777
159758
154295
160081
159617
159809
161093
158498
161312
158867
161004
158684
159266
159186
162596
148788
152337
176492
159662
159545
160101
160977
159435
159683
159397
160604
160498
158050
SCALARS Mineral_specific_surface_area_m2perg_Albite float 1
LOOKUP_TABLE default
0.090566
0.090566
0.090566
0.090566
0.090566
0.090566
0.090566
0.090566
0.090566
0.090566
0.090566
0.090566
0.090566
0.090566
0.090566
0.090566
0.090566
0.090566
0.090566
0.090566
0.090566
0.090566
0.090566
0.090566
0.090566
0.090566
0.090566
0.090566
0.090566
0.090566
0.090566
0.090566
0.090566
0.090566
0.090566
0.090566
0.090566
0.090566
0.090566
0.090566
0.090566
0.090566
0.090566
0.090566
0.090566
0.090566
0.090566
0.090566
0.090566
0.090566
0.090566
0.090566
0.090566
0.090566
0.090566
0.090566
0.090566
0.090566
0.090566
0.090566
SCALARS Mineral_specific_surface_area_m2perg_Quartz float 1
LOOKUP_TABLE default
0.090566
0.090566
0.090566
0.090566
0.090566
0.090566
0.090566
0.090566
0.090566
0.090566
0.090566
0.090566
0.090566
0.090566
0.090566
0.090566
0.090566
0.090566
0.090566
0.090566
0.090566
0.090566
0.090566
0.090566
0.090566
0.090566
0.090566
0.090566
0.090566
0.090566
0.090566
0.090566
0.090566
0.090566
0.090566
0.090566
0.090566
0.090566
0.090566
0.090566
0.090566
0.090566
0.090566
0.090566
0.090566
0.090566
0.090566
0.090566
0.090566
0.090566
0.090566
0.090566
0.090566
0.090566
0.090566
0.090566
0.090566
0.090566
0.090566
0.090566
SCALARS Mineral_mass_kg_Albite float 1
LOOKUP_TABLE default
41487.7
47782.4
40920.4
41126.2
41297
63257.7
64327.1
63531.3
63212
63625.2
64016.7
63188.7
64384.7
63188.6
62837.7
41081.7
39140.7
43959.9
46099
44262.4
64114.9
64071.8
63078.5
63597.7
63761.1
63708.3
63515
63562.3
63567.2
63075.3
42437.4
45710.7
41457.6
46850.9
44052
63823.3
63183.4
64112.2
63412.6
63761.4
63678.5
63130.7
63929
63658.6
62930.4
43139.7
43187.3
44483.7
42819.4
38591.9
63558.5
63522.3
64155.7
63214.5
63800.5
63731.8
63421.5
63701.8
63283.6
63224.7
SCALARS Mineral_mass_kg_Quartz float 1
LOOKUP_TABLE default
39711.8
43949
41948.4
45834.3
40713.7
63449
63239.9
64176.9
63446.4
63719.4
63344.4
63219.7
63560.2
64145.7
62466.8
41226.9
41246.9
44969.3
46141
41832.8
63153.5
63578.7
64283.9
63087.1
63485.8
63796.5
63616.1
63298.7
63561.6
62889.9
43152.3
46478.5
47215.5
42429.9
40979
63585
63400.9
63476.9
63987.1
62956.3
64074.1
63103
63951.8
63030.2
63261.3
42278.1
43183.8
39516.4
40459
46874.4
63418.8
63372
63592.9
63941.1
63328.6
63427.1
63313.2
63793
63750.7
62778.3
SCALARS Mineral_surface_area_m2_Albite float 1
LOOKUP_TABLE default
3.75738e+06
4.32746e+06
3.706e+06
3.72464e+06
3.74011e+06
5.729e+06
5.82585e+06
5.75377e+06
5.72486e+06
5.76228e+06
5.79774e+06
5.72275e+06
5.83107e+06
5.72274e+06
5.69096e+06
3.72061e+06
3.54482e+06
3.98127e+06
4.17501e+06
4.00867e+06
5.80663e+06
5.80273e+06
5.71277e+06
5.75979e+06
5.77459e+06
5.76981e+06
5.7523e+06
5.75658e+06
5.75703e+06
5.71248e+06
3.84339e+06
4.13984e+06
3.75465e+06
4.2431e+06
3.98961e+06
5.78022e+06
5.72227e+06
5.80639e+06
5.74303e+06
5.77461e+06
5.76711e+06
5.7175e+06
5.78979e+06
5.7653e+06
5.69936e+06
3.90699e+06
3.9113e+06
4.02872e+06
3.87799e+06
3.49512e+06
5.75624e+06
5.75296e+06
5.81033e+06
5.72509e+06
5.77816e+06
5.77194e+06
5.74383e+06
5.76922e+06
5.73134e+06
5.72601e+06
SCALARS Mineral_surface_area_m2_Quartz float 1
LOOKUP_TABLE default
3.59654e+06
3.98028e+06
3.7991e+06
4.15103e+06
3.68728e+06
5.74632e+06
5.72739e+06
5.81225e+06
5.74609e+06
5.77081e+06
5.73685e+06
5.72556e+06
5.75639e+06
5.80942e+06
5.65737e+06
3.73376e+06
3.73557e+06
4.0727e+06
4.17881e+06
3.78863e+06
5.71956e+06
5.75807e+06
5.82194e+06
5.71355e+06
5.74966e+06
5.7778e+06
5.76146e+06
5.73271e+06
5.75652e+06
5.69569e+06
3.90813e+06
4.20938e+06
4.27612e+06
3.84271e+06
3.71131e+06
5.75864e+06
5.74197e+06
5.74885e+06
5.79506e+06
5.7017e+06
5.80294e+06
5.71498e+06
5.79186e+06
5.70839e+06
5.72933e+06
3.82896e+06
3.91098e+06
3.57884e+06
3.66421e+06
4.24523e+06
5.74359e+06
5.73935e+06
5.75935e+06
5.79089e+06
5.73542e+06
5.74435e+06
5.73403e+06
5.77747e+06
5.77365e+06
5.68559e+06
SCALARS Solute_Concentration_Al+++ float 1
LOOKUP_TABLE default
6.13522e-06
8.5158e-06
1.03771e-05
1.14705e-05
1.16207e-05
1.10378e-05
9.28239e-06
7.55658e-06
6.36187e-06
4.69461e-06
3.68021e-06
3.22612e-06
2.59559e-06
2.25382e-06
1.72905e-06
6.13522e-06
8.5158e-06
1.03771e-05
1.14705e-05
1.16207e-05
1.10378e-05
9.28239e-06
7.55658e-06
6.36187e-06
4.69461e-06
3.68021e-06
3.22612e-06
2.59559e-06
2.25382e-06
1.72905e-06
6.13522e-06
8.5158e-06
1.03771e-05
1.14705e-05
1.16207e-05
1.10378e-05
9.28239e-06
7.55658e-06
6.36187e-06
4.69461e-06
3.68021e-06
3.22612e-06
2.59559e-06
2.25382e-06
1.72905e-06
6.13522e-06
8.5158e-06
1.03771e-05
1.14705e-05
1.16207e-05
1.10378e-05
9.28239e-06
7.55658e-06
6.36187e-06
4.69461e-06
3.68021e-06
3.22612e-06
2.59559e-06
2.25382e-06
1.72905e-06
SCALARS Solute_Concentration_CO2(aq) float 1
LOOKUP_TABLE default
0.00964234
0.0094933
0.00936644
0.00927138
0.00921234
0.00914699
0.00910561
0.00905555
0.0089879
0.00894332
0.00886696
0.00877443
0.00868895
0.00859295
0.00851923
0.00964234
0.0094933
0.00936644
0.00927138
0.00921234
0.00914699
0.00910561
0.00905555
0.0089879
0.00894332
0.00886696
0.00877443
0.00868895
0.00859295
0.00851923
0.00964234
0.0094933
0.00936644
0.00927138
0.00921234
0.00914699
0.00910561
0.00905555
0.0089879
0.00894332
0.00886696
0.00877443
0.00868895
0.00859295
0.00851923
0.00964234
0.0094933
0.00936644
0.00927138
0.00921234
0.00914699
0.00910561
0.00905555
0.0089879
0.00894332
0.00886696
0.00877443
0.00868895
0.00859295
0.00851923
SCALARS Solute_Concentration_Ca++ float 1
LOOKUP_TABLE default
9.0701e-05
9.07016e-05
9.07021e-05
9.07027e-05
9.07031e-05
9.07039e-05
9.07048e-05
9.07057e-05
9.07067e-05
9.07077e-05
9.07086e-05
9.07095e-05
9.07104e-05
9.07113e-05
9.07122e-05
9.0701e-05
9.07016e-05
9.07021e-05
9.07027e-05
9.07031e-05
9.07039e-05
9.07048e-05
9.07057e-05
9.07067e-05
9.07077e-05
9.07086e-05
9.07095e-05
9.07104e-05
9.07113e-05
9.07122e-05
9.0701e-05
9.07016e-05
9.07021e-05
9.07027e-05
9.07031e-05
9.07039e-05
9.07048e-05
9.07057e-05
9.07067e-05
9.07077e-05
9.07086e-05
9.07095e-05
9.07104e-05
9.07113e-05
9.07122e-05
9.0701e-05
9.07016e-05
9.07021e-05
9.07027e-05
9.07031e-05
9.07039e-05
9.07048e-05
9.07057e-05
9.07067e-05
9.07077e-05
9.07086e-05
9.07095e-05
9.07104e-05
9.07113e-05
9.07122e-05
SCALARS Solute_Concentration_Cl- float 1
LOOKUP_TABLE default
0.000465
0.000465
0.000465
0.000465
0.000465
0.000465
0.000465
0.000465
0.000465
0.000465
0.000465
0.000465
0.000465
0.000465
0.000465
0.000465
0.000465
0.000465
0.000465
0.000465
0.000465
0.000465
0.000465
0.000465
0.000465
0.000465
0.000465
0.000465
0.000465
0.000465
0.000465
0.000465
0.000465
0.000465
0.000465
0.000465
0.000465
0.000465
0.000465
0.000465
0.000465
0.000465
0.000465
0.000465
0.000465
0.000465
0.000465
0.000465
0.000465
0.000465
0.000465
0.000465
0.000465
0.000465
0.000465
0.000465
0.000465
0.000465
0.000465
0.000465
SCALARS Solute_Concentration_Fe++ float 1
LOOKUP_TABLE default
2.0998e-08
3.17274e-08
4.30936e-08
5.31417e-08
6.28811e-08
7.76673e-08
9.6105e-08
1.13267e-07
1.34249e-07
1.53977e-07
1.72772e-07
1.90613e-07
2.0914e-07
2.26572e-07
2.43091e-07
2.0998e-08
3.17274e-08
4.30936e-08
5.31417e-08
6.28811e-08
7.76673e-08
9.6105e-08
1.13267e-07
1.34249e-07
1.53977e-07
1.72772e-07
1.90613e-07
2.0914e-07
2.26572e-07
2.43091e-07
2.0998e-08
3.17274e-08
4.30936e-08
5.31417e-08
6.28811e-08
7.76673e-08
9.6105e-08
1.13267e-07
1.34249e-07
1.53977e-07
1.72772e-07
1.90613e-07
2.0914e-07
2.26572e-07
2.43091e-07
2.0998e-08
3.17274e-08
4.30936e-08
5.31417e-08
6.28811e-08
7.76673e-08
9.6105e-08
1.13267e-07
1.34249e-07
1.53977e-07
1.72772e-07
1.90613e-07
2.0914e-07
2.26572e-07
2.43091e-07
SCALARS Solute_Concentration_Fe+++ float 1
LOOKUP_TABLE default
8.35922e-09
1.2651e-08
1.71974e-08
2.12167e-08
2.51124e-08
3.10269e-08
3.8402e-08
4.52668e-08
5.36594e-08
6.15509e-08
6.90689e-08
7.62052e-08
8.36161e-08
9.05887e-08
9.71965e-08
8.35922e-09
1.2651e-08
1.71974e-08
2.12167e-08
2.51124e-08
3.10269e-08
3.8402e-08
4.52668e-08
5.36594e-08
6.15509e-08
6.90689e-08
7.62052e-08
8.36161e-08
9.05887e-08
9.71965e-08
8.35922e-09
1.2651e-08
1.71974e-08
2.12167e-08
2.51124e-08
3.10269e-08
3.8402e-08
4.52668e-08
5.36594e-08
6.15509e-08
6.90689e-08
7.62052e-08
8.36161e-08
9.05887e-08
9.71965e-08
8.35922e-09
1.2651e-08
1.71974e-08
2.12167e-08
2.51124e-08
3.10269e-08
3.8402e-08
4.52668e-08
5.36594e-08
6.15509e-08
6.90689e-08
7.62052e-08
8.36161e-08
9.05887e-08
9.71965e-08
SCALARS Solute_Concentration_H+ float 1
LOOKUP_TABLE default
-4.2519e-05
-5.2825e-05
-6.1633e-05
-6.80701e-05
-7.1606e-05
-7.47814e-05
-7.53747e-05
-7.63832e-05
-7.87919e-05
-7.93639e-05
-8.22268e-05
-8.6483e-05
-9.01021e-05
-9.45525e-05
-9.75938e-05
-4.2519e-05
-5.2825e-05
-6.1633e-05
-6.80701e-05
-7.1606e-05
-7.47814e-05
-7.53747e-05
-7.63832e-05
-7.87919e-05
-7.93639e-05
-8.22268e-05
-8.6483e-05
-9.01021e-05
-9.45525e-05
-9.75938e-05
-4.2519e-05
-5.2825e-05
-6.1633e-05
-6.80701e-05
-7.1606e-05
-7.47814e-05
-7.53747e-05
-7.63832e-05
-7.87919e-05
-7.93639e-05
-8.22268e-05
-8.6483e-05
-9.01021e-05
-9.45525e-05
-9.75938e-05
-4.2519e-05
-5.2825e-05
-6.1633e-05
-6.80701e-05
-7.1606e-05
-7.47814e-05
-7.53747e-05
-7.63832e-05
-7.87919e-05
-7.93639e-05
-8.22268e-05
-8.6483e-05
-9.01021e-05
-9.45525e-05
-9.75938e-05
SCALARS Solute_Concentration_K+ float 1
LOOKUP_TABLE default
1.89683e-05
2.0249e-05
2.15253e-05
2.27914e-05
2.41017e-05
2.62209e-05
2.84953e-05
3.09354e-05
3.33257e-05
3.55583e-05
3.78959e-05
4.00428e-05
4.20981e-05
4.40162e-05
4.58067e-05
1.89683e-05
2.0249e-05
2.15253e-05
2.27914e-05
2.41017e-05
2.62209e-05
2.84953e-05
3.09354e-05
3.33257e-05
3.55583e-05
3.78959e-05
4.00428e-05
4.20981e-05
4.40162e-05
4.58067e-05
1.89683e-05
2.0249e-05
2.15253e-05
2.27914e-05
2.41017e-05
2.62209e-05
2.84953e-05
3.09354e-05
3.33257e-05
3.55583e-05
3.78959e-05
4.00428e-05
4.20981e-05
4.40162e-05
4.58067e-05
1.89683e-05
2.0249e-05
2.15253e-05
2.27914e-05
2.41017e-05
2.62209e-05
2.84953e-05
3.09354e-05
3.33257e-05
3.55583e-05
3.78959e-05
4.00428e-05
4.20981e-05
4.40162e-05
4.58067e-05
SCALARS Solute_Concentration_Mg++ float 1
LOOKUP_TABLE default
6.88481e-05
6.88727e-05
6.88989e-05
6.8922e-05
6.89444e-05
6.89784e-05
6.90208e-05
6.90603e-05
6.91085e-05
6.91539e-05
6.91972e-05
6.92382e-05
6.92808e-05
6.93209e-05
6.93589e-05
6.88481e-05
6.88727e-05
6.88989e-05
6.8922e-05
6.89444e-05
6.89784e-05
6.90208e-05
6.90603e-05
6.91085e-05
6.91539e-05
6.91972e-05
6.92382e-05
6.92808e-05
6.93209e-05
6.93589e-05
6.88481e-05
6.88727e-05
6.88989e-05
6.8922e-05
6.89444e-05
6.89784e-05
6.90208e-05
6.90603e-05
6.91085e-05
6.91539e-05
6.91972e-05
6.92382e-05
6.92808e-05
6.93209e-05
6.93589e-05
6.88481e-05
6.88727e-05
6.88989e-05
6.8922e-05
6.89444e-05
6.89784e-05
6.90208e-05
6.90603e-05
6.91085e-05
6.91539e-05
6.91972e-05
6.92382e-05
6.92808e-05
6.93209e-05
6.93589e-05
SCALARS Solute_Concentration_NO3- float 1
LOOKUP_TABLE default
0.0001
0.0001
0.0001
0.0001
0.0001
0.0001
0.0001
0.0001
0.0001
0.0001
0.0001
0.0001
0.0001
0.0001
0.0001
0.0001
0.0001
0.0001
0.0001
0.0001
0.0001
0.0001
0.0001
0.0001
0.0001
0.0001
0.0001
0.0001
0.0001
0.0001
0.0001
0.0001
0.0001
0.0001
0.0001
0.0001
0.0001
0.0001
0.0001
0.0001
0.0001
0.0001
0.0001
0.0001
0.0001
0.0001
0.0001
0.0001
0.0001
0.0001
0.0001
0.0001
0.0001
0.0001
0.0001
0.0001
0.0001
0.0001
0.0001
0.0001
SCALARS Solute_Concentration_Na+ float 1
LOOKUP_TABLE default
0.000428932
0.00043073
0.000432588
0.0004344
0.000436098
0.000438786
0.000442225
0.000445836
0.000449272
0.000452458
0.000455878
0.000459208
0.000462517
0.000465937
0.000468632
0.000428932
0.00043073
0.000432588
0.0004344
0.000436098
0.000438786
0.000442225
0.000445836
0.000449272
0.000452458
0.000455878
0.000459208
0.000462517
0.000465937
0.000468632
0.000428932
0.00043073
0.000432588
0.0004344
0.000436098
0.000438786
0.000442225
0.000445836
0.000449272
0.000452458
0.000455878
0.000459208
0.000462517
0.000465937
0.000468632
0.000428932
0.00043073
0.000432588
0.0004344
0.000436098
0.000438786
0.000442225
0.000445836
0.000449272
0.000452458
0.000455878
0.000459208
0.000462517
0.000465937
0.000468632
SCALARS Solute_Concentration_SO4-- float 1
LOOKUP_TABLE default
0.000161
0.000161
0.000161
0.000161
0.000161
0.000161
0.000161
0.000161
0.000161
0.000161
0.000161
0.000161
0.000161
0.000161
0.000161
0.000161
0.000161
0.000161
0.000161
0.000161
0.000161
0.000161
0.000161
0.000161
0.000161
0.000161
0.000161
0.000161
0.000161
0.000161
0.000161
0.000161
0.000161
0.000161
0.000161
0.000161
0.000161
0.000161
0.000161
0.000161
0.000161
0.000161
0.000161
0.000161
0.000161
0.000161
0.000161
0.000161
0.000161
0.000161
0.000161
0.000161
0.000161
0.000161
0.000161
0.000161
0.000161
0.000161
0.000161
0.000161
SCALARS Solute_Concentration_SiO2(aq) float 1
LOOKUP_TABLE default
2.03017e-05
2.88766e-05
3.70441e-05
4.43254e-05
5.05245e-05
5.96054e-05
6.93382e-05
7.97699e-05
9.02986e-05
9.95322e-05
0.000110095
0.000120655
0.000130814
0.000141206
0.000149706
2.03017e-05
2.88766e-05
3.70441e-05
4.43254e-05
5.05245e-05
5.96054e-05
6.93382e-05
7.97699e-05
9.02986e-05
9.95322e-05
0.000110095
0.000120655
0.000130814
0.000141206
0.000149706
2.03017e-05
2.88766e-05
3.70441e-05
4.43254e-05
5.05245e-05
5.96054e-05
6.93382e-05
7.97699e-05
9.02986e-05
9.95322e-05
0.000110095
0.000120655
0.000130814
0.000141206
0.000149706
2.03017e-05
2.88766e-05
3.70441e-05
4.43254e-05
5.05245e-05
5.96054e-05
6.93382e-05
7.97699e-05
9.02986e-05
9.95322e-05
0.000110095
0.000120655
0.000130814
0.000141206
0.000149706
SCALARS Solute_Concentration_Sr++ float 1
LOOKUP_TABLE default
5.07e-07
5.07e-07
5.07e-07
5.07e-07
5.07e-07
5.07e-07
5.07e-07
5.07e-07
5.07e-07
5.07e-07
5.07e-07
5.07e-07
5.07e-07
5.07e-07
5.07e-07
5.07e-07
5.07e-07
5.07e-07
5.07e-07
5.07e-07
5.07e-07
5.07e-07
5.07e-07
5.07e-07
5.07e-07
5.07e-07
5.07e-07
5.07e-07
5.07e-07
5.07e-07
5.07e-07
5.07e-07
5.07e-07
5.07e-07
5.07e-07
5.07e-07
5.07e-07
5.07e-07
5.07e-07
5.07e-07
5.07e-07
5.07e-07
5.07e-07
5.07e-07
5.07e-07
5.07e-07
5.07e-07
5.07e-07
5.07e-07
5.07e-07
5.07e-07
5.07e-07
5.07e-07
5.07e-07
5.07e-07
5.07e-07
5.07e-07
5.07e-07
5.07e-07
5.07e-07
SCALARS Reaction_rates_Moles_per_L_porusmedium_per_second_Albite float 1
LOOKUP_TABLE default
1.24993e-16
1.26242e-15
7.24827e-15
1.47226e-14
3.55173e-14
5.64539e-14
7.16344e-14
7.35283e-14
6.41013e-14
6.95899e-14
6.43266e-14
5.45646e-14
6.00298e-14
5.77319e-14
6.03845e-14
1.24993e-16
1.26242e-15
7.24827e-15
1.47226e-14
3.55173e-14
5.64539e-14
7.16344e-14
7.35283e-14
6.41013e-14
6.95899e-14
6.43266e-14
5.45646e-14
6.00298e-14
5.77319e-14
6.03845e-14
1.24993e-16
1.26242e-15
7.24827e-15
1.47226e-14
3.55173e-14
5.64539e-14
7.16344e-14
7.35283e-14
6.41013e-14
6.95899e-14
6.43266e-14
5.45646e-14
6.00298e-14
5.77319e-14
6.03845e-14
1.24993e-16
1.26242e-15
7.24827e-15
1.47226e-14
3.55173e-14
5.64539e-14
7.16344e-14
7.35283e-14
6.41013e-14
6.95899e-14
6.43266e-14
5.45646e-14
6.00298e-14
5.77319e-14
6.03845e-14
SCALARS Reaction_rates_Moles_per_L_porusmedium_per_second_Quartz float 1
LOOKUP_TABLE default
-3.74274e-14
-3.59755e-14
-3.58475e-14
-3.3978e-14
-3.84667e-14
-4.86591e-14
-4.28169e-14
-4.46085e-14
-4.45025e-14
-4.21593e-14
-4.33433e-14
-3.99805e-14
-4.09584e-14
-3.8104e-14
-4.27348e-14
-3.74274e-14
-3.59755e-14
-3.58475e-14
-3.3978e-14
-3.84667e-14
-4.86591e-14
-4.28169e-14
-4.46085e-14
-4.45025e-14
-4.21593e-14
-4.33433e-14
-3.99805e-14
-4.09584e-14
-3.8104e-14
-4.27348e-14
-3.74274e-14
-3.59755e-14
-3.58475e-14
-3.3978e-14
-3.84667e-14
-4.86591e-14
-4.28169e-14
-4.46085e-14
-4.45025e-14
-4.21593e-14
-4.33433e-14
-3.99805e-14
-4.09584e-14
-3.8104e-14
-4.27348e-14
-3.74274e-14
-3.59755e-14
-3.58475e-14
-3.3978e-14
-3.84667e-14
-4.86591e-14
-4.28169e-14
-4.46085e-14
-4.45025e-14
-4.21593e-14
-4.33433e-14
-3.99805e-14
-4.09584e-14
-3.8104e-14
-4.27348e-14
SCALARS Mineral_mass_fraction_Albite float 1
LOOKUP_TABLE default
0.510279
0.519763
0.494182
0.474499
0.503353
0.499306
0.504025
0.497635
0.499145
0.499665
0.502499
0.4999
0.503048
0.496477
0.501408
0.499186
0.487725
0.494655
0.499795
0.513302
0.503572
0.501832
0.49556
0.501912
0.501032
0.499688
0.499641
0.500992
0.500035
0.500708
0.496081
0.496074
0.469377
0.523381
0.51702
0.500897
0.499205
0.502358
0.497893
0.503003
0.498556
0.500118
0.49993
0.502349
0.498782
0.504762
0.500032
0.527821
0.513335
0.454391
0.500534
0.500571
0.502089
0.497326
0.50176
0.501142
0.500417
0.499678
0.498284
0.501682
SCALARS Mineral_mass_fraction_Quartz float 1
LOOKUP_TABLE default
0.489721
0.480237
0.505818
0.525501
0.496647
0.500694
0.495975
0.502365
0.500855
0.500335
0.497501
0.5001
0.496952
0.503523
0.498592
0.500814
0.512275
0.505345
0.500205
0.486698
0.496428
0.498168
0.50444
0.498088
0.498968
0.500312
0.500359
0.499008
0.499965
0.499292
0.503919
0.503926
0.530623
0.476619
0.48298
0.499103
0.500795
0.497642
0.502107
0.496997
0.501444
0.499882
0.50007
0.497651
0.501218
0.495238
0.499968
0.472179
0.486665
0.545609
0.499466
0.499429
0.497911
0.502674
0.49824
0.498858
0.499583
0.500322
0.501716
0.498318
SCALARS Mineral_depletion_ratio_Albite float 1
LOOKUP_TABLE default
5285.61
5219.56
5273.63
5243.72
5257
3896.31
3969.8
4165.78
4244.37
4171.56
3946.01
4276.68
4049.69
4044.75
4078.88
4969.13
4540.93
5016.28
5852.18
4836.98
3963.24
4381.77
4242.61
4057.17
4122.68
3911.07
4297.46
4073.39
4180.92
3824.72
4703.97
5140.6
4992.47
5372.15
4919.06
4158.15
4112.57
4188.71
4139.31
4116.43
4025.72
4023.08
4386.7
4103.97
4072.11
5059.23
5067.03
5034.47
5053.02
5074.13
4161.06
4353.38
3948.35
4185.01
4234.68
3791.85
3951.63
4009.22
4106.14
4071.43
SCALARS Mineral_depletion_ratio_Quartz float 1
LOOKUP_TABLE default
4964.5
4942.32
4949.74
4903.48
4962.91
3935.66
4166.87
4218.42
4141.13
4119.93
4122.19
4508.16
3947.94
4017.44
4087.17
4479.65
5088.86
5087.37
5487.11
5129.72
4006.16
4130.23
4055.5
3852.67
4056.3
4240.83
4009.86
3949.98
4054.77
4203.78
5335.06
5062.93
5149.76
5146.01
5221.53
4111.72
4081.9
3858.43
3938.35
4380.22
4353.61
4158.37
4096.65
4065.59
4287.83
5010.32
4982.5
5001.59
4997.51
4959.62
3986.29
4308.69
4044.48
4177.94
4083.7
4004.58
4291.19
3811.08
4147.09
4230.02
