# vtk DataFile Version 2.0
Unstructured Grid Ptrack_cells
ASCII

DATASET UNSTRUCTURED_GRID
POINTS 80 float
0 99.9844 0.0
0 99.8836 0.0
0 99.7827 0.0
0 99.6818 0.0
0 99.5809 0.0
0 99.48 0.0
0 99.3304 0.0
0 99.1809 0.0
0 99.0313 0.0
0 98.8818 0.0
0 98.7322 0.0
0 98.5827 0.0
0 98.4331 0.0
0 98.2836 0.0
0 98.134 0.0
0 97.9844 0.0
0.1 99.9844 0.0
0.1 99.8836 0.0
0.1 99.7827 0.0
0.1 99.6818 0.0
0.1 99.5809 0.0
0.1 99.48 0.0
0.1 99.3304 0.0
0.1 99.1809 0.0
0.1 99.0313 0.0
0.1 98.8818 0.0
0.1 98.7322 0.0
0.1 98.5827 0.0
0.1 98.4331 0.0
0.1 98.2836 0.0
0.1 98.134 0.0
0.1 97.9844 0.0
0.2 99.9844 0.0
0.2 99.8836 0.0
0.2 99.7827 0.0
0.2 99.6818 0.0
0.2 99.5809 0.0
0.2 99.48 0.0
0.2 99.3304 0.0
0.2 99.1809 0.0
0.2 99.0313 0.0
0.2 98.8818 0.0
0.2 98.7322 0.0
0.2 98.5827 0.0
0.2 98.4331 0.0
0.2 98.2836 0.0
0.2 98.134 0.0
0.2 97.9844 0.0
0.3 99.9844 0.0
0.3 99.8836 0.0
0.3 99.7827 0.0
0.3 99.6818 0.0
0.3 99.5809 0.0
0.3 99.48 0.0
0.3 99.3304 0.0
0.3 99.1809 0.0
0.3 99.0313 0.0
0.3 98.8818 0.0
0.3 98.7322 0.0
0.3 98.5827 0.0
0.3 98.4331 0.0
0.3 98.2836 0.0
0.3 98.134 0.0
0.3 97.9844 0.0
0.4 99.9844 0.0
0.4 99.8836 0.0
0.4 99.7827 0.0
0.4 99.6818 0.0
0.4 99.5809 0.0
0.4 99.48 0.0
0.4 99.3304 0.0
0.4 99.1809 0.0
0.4 99.0313 0.0
0.4 98.8818 0.0
0.4 98.7322 0.0
0.4 98.5827 0.0
0.4 98.4331 0.0
0.4 98.2836 0.0
0.4 98.134 0.0
0.4 97.9844 0.0

CELLS 60 300
4 0 16 17 1
4 1 17 18 2
4 2 18 19 3
4 3 19 20 4
4 4 20 21 5
4 5 21 22 6
4 6 22 23 7
4 7 23 24 8
4 8 24 25 9
4 9 25 26 10
4 10 26 27 11
4 11 27 28 12
4 12 28 29 13
4 13 29 30 14
4 14 30 31 15
4 16 32 33 17
4 17 33 34 18
4 18 34 35 19
4 19 35 36 20
4 20 36 37 21
4 21 37 38 22
4 22 38 39 23
4 23 39 40 24
4 24 40 41 25
4 25 41 42 26
4 26 42 43 27
4 27 43 44 28
4 28 44 45 29
4 29 45 46 30
4 30 46 47 31
4 32 48 49 33
4 33 49 50 34
4 34 50 51 35
4 35 51 52 36
4 36 52 53 37
4 37 53 54 38
4 38 54 55 39
4 39 55 56 40
4 40 56 57 41
4 41 57 58 42
4 42 58 59 43
4 43 59 60 44
4 44 60 61 45
4 45 61 62 46
4 46 62 63 47
4 48 64 65 49
4 49 65 66 50
4 50 66 67 51
4 51 67 68 52
4 52 68 69 53
4 53 69 70 54
4 54 70 71 55
4 55 71 72 56
4 56 72 73 57
4 57 73 74 58
4 58 74 75 59
4 59 75 76 60
4 60 76 77 61
4 61 77 78 62
4 62 78 79 63

CELL_TYPES 60
9
9
9
9
9
9
9
9
9
9
9
9
9
9
9
9
9
9
9
9
9
9
9
9
9
9
9
9
9
9
9
9
9
9
9
9
9
9
9
9
9
9
9
9
9
9
9
9
9
9
9
9
9
9
9
9
9
9
9
9

CELL_DATA 60
SCALARS SOIL_OR_PARENT int 1
LOOKUP_TABLE default
1
1
1
1
1
0
0
0
0
0
0
0
0
0
0
1
1
1
1
1
0
0
0
0
0
0
0
0
0
0
1
1
1
1
1
0
0
0
0
0
0
0
0
0
0
1
1
1
1
1
0
0
0
0
0
0
0
0
0
0
SCALARS CELL_NUM int 1
LOOKUP_TABLE default
0
1
2
3
4
5
6
7
8
9
10
11
12
13
14
15
16
17
18
19
20
21
22
23
24
25
26
27
28
29
30
31
32
33
34
35
36
37
38
39
40
41
42
43
44
45
46
47
48
49
50
51
52
53
54
55
56
57
58
59
SCALARS Mineral_volume_percents_Albite float 1
LOOKUP_TABLE default
782303
764078
733353
762055
756646
761029
749832
765785
753195
771841
759194
741715
775527
764074
714784
693511
700446
781080
849620
807426
753460
776882
745351
761212
776582
750524
757995
752811
768810
717205
743125
763062
783007
796776
741351
754365
764982
764060
758298
763844
754584
760773
771111
747922
723298
761975
773501
750515
761904
769760
759208
758553
756229
756256
762157
769970
756550
748432
766907
721580
SCALARS Mineral_volume_percents_Quartz float 1
LOOKUP_TABLE default
726412
810739
780943
732207
770137
754248
755184
760017
751696
771129
752554
777539
750073
752551
720296
769469
785811
732154
781825
755203
756819
745540
769086
752250
759921
768174
751794
771016
758918
709509
767266
739917
783662
809438
742344
743647
773161
748980
767426
752747
751681
765114
762106
769050
709934
739818
785051
764160
788252
719647
774926
748869
759322
763326
757064
747231
769355
761486
765259
715188
SCALARS Mineral_specific_surface_area_m2perg_Albite float 1
LOOKUP_TABLE default
0.090566
0.090566
0.090566
0.090566
0.090566
0.090566
0.090566
0.090566
0.090566
0.090566
0.090566
0.090566
0.090566
0.090566
0.090566
0.090566
0.090566
0.090566
0.090566
0.090566
0.090566
0.090566
0.090566
0.090566
0.090566
0.090566
0.090566
0.090566
0.090566
0.090566
0.090566
0.090566
0.090566
0.090566
0.090566
0.090566
0.090566
0.090566
0.090566
0.090566
0.090566
0.090566
0.090566
0.090566
0.090566
0.090566
0.090566
0.090566
0.090566
0.090566
0.090566
0.090566
0.090566
0.090566
0.090566
0.090566
0.090566
0.090566
0.090566
0.090566
SCALARS Mineral_specific_surface_area_m2perg_Quartz float 1
LOOKUP_TABLE default
0.090566
0.090566
0.090566
0.090566
0.090566
0.090566
0.090566
0.090566
0.090566
0.090566
0.090566
0.090566
0.090566
0.090566
0.090566
0.090566
0.090566
0.090566
0.090566
0.090566
0.090566
0.090566
0.090566
0.090566
0.090566
0.090566
0.090566
0.090566
0.090566
0.090566
0.090566
0.090566
0.090566
0.090566
0.090566
0.090566
0.090566
0.090566
0.090566
0.090566
0.090566
0.090566
0.090566
0.090566
0.090566
0.090566
0.090566
0.090566
0.090566
0.090566
0.090566
0.090566
0.090566
0.090566
0.090566
0.090566
0.090566
0.090566
0.090566
0.090566
SCALARS Mineral_mass_kg_Albite float 1
LOOKUP_TABLE default
209153
204281
196066
203740
202294
301613
297175
303498
298508
305898
300886
293958
307358
302819
283285
185414
187268
208826
227151
215870
298613
307895
295399
301685
307777
297449
300410
298356
304696
284244
198679
204009
209341
213023
198204
298972
303179
302814
300530
302728
299058
301511
305609
296418
286659
203718
206800
200654
203699
205800
300891
300632
299710
299721
302060
305156
299837
296620
303942
285978
SCALARS Mineral_mass_kg_Quartz float 1
LOOKUP_TABLE default
194210
216756
208789
195760
205900
298925
299296
301212
297914
305616
298254
308156
297271
298252
285469
205722
210091
195745
209025
201908
299944
295474
304806
298134
301174
304445
297953
305571
300776
281194
205133
197821
209516
216408
198470
294724
306421
296837
304148
298330
297908
303232
302040
304792
281363
197795
209888
204302
210744
192402
307120
296793
300936
302523
300041
296144
304913
301794
303289
283445
SCALARS Mineral_surface_area_m2_Albite float 1
LOOKUP_TABLE default
1.89422e+07
1.85009e+07
1.77569e+07
1.84519e+07
1.83209e+07
2.73159e+07
2.6914e+07
2.74866e+07
2.70347e+07
2.77039e+07
2.725e+07
2.66226e+07
2.78362e+07
2.74252e+07
2.5656e+07
1.67922e+07
1.69601e+07
1.89126e+07
2.05721e+07
1.95505e+07
2.70442e+07
2.78849e+07
2.67531e+07
2.73224e+07
2.78741e+07
2.69388e+07
2.7207e+07
2.70209e+07
2.75951e+07
2.57429e+07
1.79935e+07
1.84763e+07
1.89592e+07
1.92926e+07
1.79506e+07
2.70767e+07
2.74577e+07
2.74247e+07
2.72179e+07
2.74169e+07
2.70845e+07
2.73067e+07
2.76778e+07
2.68454e+07
2.59616e+07
1.845e+07
1.8729e+07
1.81725e+07
1.84482e+07
1.86385e+07
2.72505e+07
2.7227e+07
2.71436e+07
2.71445e+07
2.73563e+07
2.76368e+07
2.71551e+07
2.68637e+07
2.75269e+07
2.58999e+07
SCALARS Mineral_surface_area_m2_Quartz float 1
LOOKUP_TABLE default
1.75889e+07
1.96307e+07
1.89092e+07
1.77292e+07
1.86476e+07
2.70725e+07
2.71061e+07
2.72795e+07
2.69809e+07
2.76784e+07
2.70117e+07
2.79085e+07
2.69226e+07
2.70115e+07
2.58538e+07
1.86314e+07
1.90271e+07
1.77279e+07
1.89306e+07
1.8286e+07
2.71647e+07
2.67599e+07
2.76051e+07
2.70008e+07
2.72761e+07
2.75723e+07
2.69844e+07
2.76743e+07
2.72401e+07
2.54666e+07
1.85781e+07
1.79159e+07
1.89751e+07
1.95992e+07
1.79746e+07
2.6692e+07
2.77513e+07
2.68834e+07
2.75455e+07
2.70186e+07
2.69803e+07
2.74625e+07
2.73545e+07
2.76038e+07
2.54819e+07
1.79135e+07
1.90087e+07
1.85029e+07
1.90862e+07
1.74251e+07
2.78147e+07
2.68794e+07
2.72546e+07
2.73983e+07
2.71735e+07
2.68206e+07
2.76147e+07
2.73323e+07
2.74677e+07
2.56705e+07
SCALARS Solute_Concentration_Al+++ float 1
LOOKUP_TABLE default
6.13522e-06
8.5158e-06
1.03771e-05
1.14705e-05
1.16207e-05
1.10378e-05
9.28239e-06
7.55658e-06
6.36187e-06
4.69461e-06
3.68021e-06
3.22612e-06
2.59559e-06
2.25382e-06
1.72905e-06
6.13522e-06
8.5158e-06
1.03771e-05
1.14705e-05
1.16207e-05
1.10378e-05
9.28239e-06
7.55658e-06
6.36187e-06
4.69461e-06
3.68021e-06
3.22612e-06
2.59559e-06
2.25382e-06
1.72905e-06
6.13522e-06
8.5158e-06
1.03771e-05
1.14705e-05
1.16207e-05
1.10378e-05
9.28239e-06
7.55658e-06
6.36187e-06
4.69461e-06
3.68021e-06
3.22612e-06
2.59559e-06
2.25382e-06
1.72905e-06
6.13522e-06
8.5158e-06
1.03771e-05
1.14705e-05
1.16207e-05
1.10378e-05
9.28239e-06
7.55658e-06
6.36187e-06
4.69461e-06
3.68021e-06
3.22612e-06
2.59559e-06
2.25382e-06
1.72905e-06
SCALARS Solute_Concentration_CO2(aq) float 1
LOOKUP_TABLE default
0.00964234
0.0094933
0.00936644
0.00927138
0.00921234
0.00914699
0.00910561
0.00905555
0.0089879
0.00894332
0.00886696
0.00877443
0.00868895
0.00859295
0.00851923
0.00964234
0.0094933
0.00936644
0.00927138
0.00921234
0.00914699
0.00910561
0.00905555
0.0089879
0.00894332
0.00886696
0.00877443
0.00868895
0.00859295
0.00851923
0.00964234
0.0094933
0.00936644
0.00927138
0.00921234
0.00914699
0.00910561
0.00905555
0.0089879
0.00894332
0.00886696
0.00877443
0.00868895
0.00859295
0.00851923
0.00964234
0.0094933
0.00936644
0.00927138
0.00921234
0.00914699
0.00910561
0.00905555
0.0089879
0.00894332
0.00886696
0.00877443
0.00868895
0.00859295
0.00851923
SCALARS Solute_Concentration_Ca++ float 1
LOOKUP_TABLE default
9.0701e-05
9.07016e-05
9.07021e-05
9.07027e-05
9.07031e-05
9.07039e-05
9.07048e-05
9.07057e-05
9.07067e-05
9.07077e-05
9.07086e-05
9.07095e-05
9.07104e-05
9.07113e-05
9.07122e-05
9.0701e-05
9.07016e-05
9.07021e-05
9.07027e-05
9.07031e-05
9.07039e-05
9.07048e-05
9.07057e-05
9.07067e-05
9.07077e-05
9.07086e-05
9.07095e-05
9.07104e-05
9.07113e-05
9.07122e-05
9.0701e-05
9.07016e-05
9.07021e-05
9.07027e-05
9.07031e-05
9.07039e-05
9.07048e-05
9.07057e-05
9.07067e-05
9.07077e-05
9.07086e-05
9.07095e-05
9.07104e-05
9.07113e-05
9.07122e-05
9.0701e-05
9.07016e-05
9.07021e-05
9.07027e-05
9.07031e-05
9.07039e-05
9.07048e-05
9.07057e-05
9.07067e-05
9.07077e-05
9.07086e-05
9.07095e-05
9.07104e-05
9.07113e-05
9.07122e-05
SCALARS Solute_Concentration_Cl- float 1
LOOKUP_TABLE default
0.000465
0.000465
0.000465
0.000465
0.000465
0.000465
0.000465
0.000465
0.000465
0.000465
0.000465
0.000465
0.000465
0.000465
0.000465
0.000465
0.000465
0.000465
0.000465
0.000465
0.000465
0.000465
0.000465
0.000465
0.000465
0.000465
0.000465
0.000465
0.000465
0.000465
0.000465
0.000465
0.000465
0.000465
0.000465
0.000465
0.000465
0.000465
0.000465
0.000465
0.000465
0.000465
0.000465
0.000465
0.000465
0.000465
0.000465
0.000465
0.000465
0.000465
0.000465
0.000465
0.000465
0.000465
0.000465
0.000465
0.000465
0.000465
0.000465
0.000465
SCALARS Solute_Concentration_Fe++ float 1
LOOKUP_TABLE default
2.0998e-08
3.17274e-08
4.30936e-08
5.31417e-08
6.28811e-08
7.76673e-08
9.6105e-08
1.13267e-07
1.34249e-07
1.53977e-07
1.72772e-07
1.90613e-07
2.0914e-07
2.26572e-07
2.43091e-07
2.0998e-08
3.17274e-08
4.30936e-08
5.31417e-08
6.28811e-08
7.76673e-08
9.6105e-08
1.13267e-07
1.34249e-07
1.53977e-07
1.72772e-07
1.90613e-07
2.0914e-07
2.26572e-07
2.43091e-07
2.0998e-08
3.17274e-08
4.30936e-08
5.31417e-08
6.28811e-08
7.76673e-08
9.6105e-08
1.13267e-07
1.34249e-07
1.53977e-07
1.72772e-07
1.90613e-07
2.0914e-07
2.26572e-07
2.43091e-07
2.0998e-08
3.17274e-08
4.30936e-08
5.31417e-08
6.28811e-08
7.76673e-08
9.6105e-08
1.13267e-07
1.34249e-07
1.53977e-07
1.72772e-07
1.90613e-07
2.0914e-07
2.26572e-07
2.43091e-07
SCALARS Solute_Concentration_Fe+++ float 1
LOOKUP_TABLE default
8.35922e-09
1.2651e-08
1.71974e-08
2.12167e-08
2.51124e-08
3.10269e-08
3.8402e-08
4.52668e-08
5.36594e-08
6.15509e-08
6.90689e-08
7.62052e-08
8.36161e-08
9.05887e-08
9.71965e-08
8.35922e-09
1.2651e-08
1.71974e-08
2.12167e-08
2.51124e-08
3.10269e-08
3.8402e-08
4.52668e-08
5.36594e-08
6.15509e-08
6.90689e-08
7.62052e-08
8.36161e-08
9.05887e-08
9.71965e-08
8.35922e-09
1.2651e-08
1.71974e-08
2.12167e-08
2.51124e-08
3.10269e-08
3.8402e-08
4.52668e-08
5.36594e-08
6.15509e-08
6.90689e-08
7.62052e-08
8.36161e-08
9.05887e-08
9.71965e-08
8.35922e-09
1.2651e-08
1.71974e-08
2.12167e-08
2.51124e-08
3.10269e-08
3.8402e-08
4.52668e-08
5.36594e-08
6.15509e-08
6.90689e-08
7.62052e-08
8.36161e-08
9.05887e-08
9.71965e-08
SCALARS Solute_Concentration_H+ float 1
LOOKUP_TABLE default
-4.2519e-05
-5.2825e-05
-6.1633e-05
-6.80701e-05
-7.1606e-05
-7.47814e-05
-7.53747e-05
-7.63832e-05
-7.87919e-05
-7.93639e-05
-8.22268e-05
-8.6483e-05
-9.01021e-05
-9.45525e-05
-9.75938e-05
-4.2519e-05
-5.2825e-05
-6.1633e-05
-6.80701e-05
-7.1606e-05
-7.47814e-05
-7.53747e-05
-7.63832e-05
-7.87919e-05
-7.93639e-05
-8.22268e-05
-8.6483e-05
-9.01021e-05
-9.45525e-05
-9.75938e-05
-4.2519e-05
-5.2825e-05
-6.1633e-05
-6.80701e-05
-7.1606e-05
-7.47814e-05
-7.53747e-05
-7.63832e-05
-7.87919e-05
-7.93639e-05
-8.22268e-05
-8.6483e-05
-9.01021e-05
-9.45525e-05
-9.75938e-05
-4.2519e-05
-5.2825e-05
-6.1633e-05
-6.80701e-05
-7.1606e-05
-7.47814e-05
-7.53747e-05
-7.63832e-05
-7.87919e-05
-7.93639e-05
-8.22268e-05
-8.6483e-05
-9.01021e-05
-9.45525e-05
-9.75938e-05
SCALARS Solute_Concentration_K+ float 1
LOOKUP_TABLE default
1.89683e-05
2.0249e-05
2.15253e-05
2.27914e-05
2.41017e-05
2.62209e-05
2.84953e-05
3.09354e-05
3.33257e-05
3.55583e-05
3.78959e-05
4.00428e-05
4.20981e-05
4.40162e-05
4.58067e-05
1.89683e-05
2.0249e-05
2.15253e-05
2.27914e-05
2.41017e-05
2.62209e-05
2.84953e-05
3.09354e-05
3.33257e-05
3.55583e-05
3.78959e-05
4.00428e-05
4.20981e-05
4.40162e-05
4.58067e-05
1.89683e-05
2.0249e-05
2.15253e-05
2.27914e-05
2.41017e-05
2.62209e-05
2.84953e-05
3.09354e-05
3.33257e-05
3.55583e-05
3.78959e-05
4.00428e-05
4.20981e-05
4.40162e-05
4.58067e-05
1.89683e-05
2.0249e-05
2.15253e-05
2.27914e-05
2.41017e-05
2.62209e-05
2.84953e-05
3.09354e-05
3.33257e-05
3.55583e-05
3.78959e-05
4.00428e-05
4.20981e-05
4.40162e-05
4.58067e-05
SCALARS Solute_Concentration_Mg++ float 1
LOOKUP_TABLE default
6.88481e-05
6.88727e-05
6.88989e-05
6.8922e-05
6.89444e-05
6.89784e-05
6.90208e-05
6.90603e-05
6.91085e-05
6.91539e-05
6.91972e-05
6.92382e-05
6.92808e-05
6.93209e-05
6.93589e-05
6.88481e-05
6.88727e-05
6.88989e-05
6.8922e-05
6.89444e-05
6.89784e-05
6.90208e-05
6.90603e-05
6.91085e-05
6.91539e-05
6.91972e-05
6.92382e-05
6.92808e-05
6.93209e-05
6.93589e-05
6.88481e-05
6.88727e-05
6.88989e-05
6.8922e-05
6.89444e-05
6.89784e-05
6.90208e-05
6.90603e-05
6.91085e-05
6.91539e-05
6.91972e-05
6.92382e-05
6.92808e-05
6.93209e-05
6.93589e-05
6.88481e-05
6.88727e-05
6.88989e-05
6.8922e-05
6.89444e-05
6.89784e-05
6.90208e-05
6.90603e-05
6.91085e-05
6.91539e-05
6.91972e-05
6.92382e-05
6.92808e-05
6.93209e-05
6.93589e-05
SCALARS Solute_Concentration_NO3- float 1
LOOKUP_TABLE default
0.0001
0.0001
0.0001
0.0001
0.0001
0.0001
0.0001
0.0001
0.0001
0.0001
0.0001
0.0001
0.0001
0.0001
0.0001
0.0001
0.0001
0.0001
0.0001
0.0001
0.0001
0.0001
0.0001
0.0001
0.0001
0.0001
0.0001
0.0001
0.0001
0.0001
0.0001
0.0001
0.0001
0.0001
0.0001
0.0001
0.0001
0.0001
0.0001
0.0001
0.0001
0.0001
0.0001
0.0001
0.0001
0.0001
0.0001
0.0001
0.0001
0.0001
0.0001
0.0001
0.0001
0.0001
0.0001
0.0001
0.0001
0.0001
0.0001
0.0001
SCALARS Solute_Concentration_Na+ float 1
LOOKUP_TABLE default
0.000428932
0.00043073
0.000432588
0.0004344
0.000436098
0.000438786
0.000442225
0.000445836
0.000449272
0.000452458
0.000455878
0.000459208
0.000462517
0.000465937
0.000468632
0.000428932
0.00043073
0.000432588
0.0004344
0.000436098
0.000438786
0.000442225
0.000445836
0.000449272
0.000452458
0.000455878
0.000459208
0.000462517
0.000465937
0.000468632
0.000428932
0.00043073
0.000432588
0.0004344
0.000436098
0.000438786
0.000442225
0.000445836
0.000449272
0.000452458
0.000455878
0.000459208
0.000462517
0.000465937
0.000468632
0.000428932
0.00043073
0.000432588
0.0004344
0.000436098
0.000438786
0.000442225
0.000445836
0.000449272
0.000452458
0.000455878
0.000459208
0.000462517
0.000465937
0.000468632
SCALARS Solute_Concentration_SO4-- float 1
LOOKUP_TABLE default
0.000161
0.000161
0.000161
0.000161
0.000161
0.000161
0.000161
0.000161
0.000161
0.000161
0.000161
0.000161
0.000161
0.000161
0.000161
0.000161
0.000161
0.000161
0.000161
0.000161
0.000161
0.000161
0.000161
0.000161
0.000161
0.000161
0.000161
0.000161
0.000161
0.000161
0.000161
0.000161
0.000161
0.000161
0.000161
0.000161
0.000161
0.000161
0.000161
0.000161
0.000161
0.000161
0.000161
0.000161
0.000161
0.000161
0.000161
0.000161
0.000161
0.000161
0.000161
0.000161
0.000161
0.000161
0.000161
0.000161
0.000161
0.000161
0.000161
0.000161
SCALARS Solute_Concentration_SiO2(aq) float 1
LOOKUP_TABLE default
2.03017e-05
2.88766e-05
3.70441e-05
4.43254e-05
5.05245e-05
5.96054e-05
6.93382e-05
7.97699e-05
9.02986e-05
9.95322e-05
0.000110095
0.000120655
0.000130814
0.000141206
0.000149706
2.03017e-05
2.88766e-05
3.70441e-05
4.43254e-05
5.05245e-05
5.96054e-05
6.93382e-05
7.97699e-05
9.02986e-05
9.95322e-05
0.000110095
0.000120655
0.000130814
0.000141206
0.000149706
2.03017e-05
2.88766e-05
3.70441e-05
4.43254e-05
5.05245e-05
5.96054e-05
6.93382e-05
7.97699e-05
9.02986e-05
9.95322e-05
0.000110095
0.000120655
0.000130814
0.000141206
0.000149706
2.03017e-05
2.88766e-05
3.70441e-05
4.43254e-05
5.05245e-05
5.96054e-05
6.93382e-05
7.97699e-05
9.02986e-05
9.95322e-05
0.000110095
0.000120655
0.000130814
0.000141206
0.000149706
SCALARS Solute_Concentration_Sr++ float 1
LOOKUP_TABLE default
5.07e-07
5.07e-07
5.07e-07
5.07e-07
5.07e-07
5.07e-07
5.07e-07
5.07e-07
5.07e-07
5.07e-07
5.07e-07
5.07e-07
5.07e-07
5.07e-07
5.07e-07
5.07e-07
5.07e-07
5.07e-07
5.07e-07
5.07e-07
5.07e-07
5.07e-07
5.07e-07
5.07e-07
5.07e-07
5.07e-07
5.07e-07
5.07e-07
5.07e-07
5.07e-07
5.07e-07
5.07e-07
5.07e-07
5.07e-07
5.07e-07
5.07e-07
5.07e-07
5.07e-07
5.07e-07
5.07e-07
5.07e-07
5.07e-07
5.07e-07
5.07e-07
5.07e-07
5.07e-07
5.07e-07
5.07e-07
5.07e-07
5.07e-07
5.07e-07
5.07e-07
5.07e-07
5.07e-07
5.07e-07
5.07e-07
5.07e-07
5.07e-07
5.07e-07
5.07e-07
SCALARS Reaction_rates_Moles_per_L_porusmedium_per_second_Albite float 1
LOOKUP_TABLE default
1.24993e-16
1.26242e-15
7.24827e-15
1.47226e-14
3.55173e-14
5.64539e-14
7.16344e-14
7.35283e-14
6.41013e-14
6.95899e-14
6.43266e-14
5.45646e-14
6.00298e-14
5.77319e-14
6.03845e-14
1.24993e-16
1.26242e-15
7.24827e-15
1.47226e-14
3.55173e-14
5.64539e-14
7.16344e-14
7.35283e-14
6.41013e-14
6.95899e-14
6.43266e-14
5.45646e-14
6.00298e-14
5.77319e-14
6.03845e-14
1.24993e-16
1.26242e-15
7.24827e-15
1.47226e-14
3.55173e-14
5.64539e-14
7.16344e-14
7.35283e-14
6.41013e-14
6.95899e-14
6.43266e-14
5.45646e-14
6.00298e-14
5.77319e-14
6.03845e-14
1.24993e-16
1.26242e-15
7.24827e-15
1.47226e-14
3.55173e-14
5.64539e-14
7.16344e-14
7.35283e-14
6.41013e-14
6.95899e-14
6.43266e-14
5.45646e-14
6.00298e-14
5.77319e-14
6.03845e-14
SCALARS Reaction_rates_Moles_per_L_porusmedium_per_second_Quartz float 1
LOOKUP_TABLE default
-3.74274e-14
-3.59755e-14
-3.58475e-14
-3.3978e-14
-3.84667e-14
-4.86591e-14
-4.28169e-14
-4.46085e-14
-4.45025e-14
-4.21593e-14
-4.33433e-14
-3.99805e-14
-4.09584e-14
-3.8104e-14
-4.27348e-14
-3.74274e-14
-3.59755e-14
-3.58475e-14
-3.3978e-14
-3.84667e-14
-4.86591e-14
-4.28169e-14
-4.46085e-14
-4.45025e-14
-4.21593e-14
-4.33433e-14
-3.99805e-14
-4.09584e-14
-3.8104e-14
-4.27348e-14
-3.74274e-14
-3.59755e-14
-3.58475e-14
-3.3978e-14
-3.84667e-14
-4.86591e-14
-4.28169e-14
-4.46085e-14
-4.45025e-14
-4.21593e-14
-4.33433e-14
-3.99805e-14
-4.09584e-14
-3.8104e-14
-4.27348e-14
-3.74274e-14
-3.59755e-14
-3.58475e-14
-3.3978e-14
-3.84667e-14
-4.86591e-14
-4.28169e-14
-4.46085e-14
-4.45025e-14
-4.21593e-14
-4.33433e-14
-3.99805e-14
-4.09584e-14
-3.8104e-14
-4.27348e-14
SCALARS Mineral_mass_fraction_Albite float 1
LOOKUP_TABLE default
0.518283
0.485374
0.484494
0.509858
0.495642
0.502212
0.498249
0.501869
0.500495
0.500231
0.502171
0.488366
0.508237
0.503753
0.49811
0.474393
0.471666
0.515958
0.520529
0.516502
0.498906
0.510163
0.492269
0.502925
0.505355
0.494268
0.50203
0.494107
0.503199
0.502664
0.492116
0.507601
0.499796
0.496109
0.499673
0.503534
0.497378
0.504922
0.497051
0.503614
0.500954
0.498599
0.502902
0.49313
0.504602
0.507283
0.496344
0.495557
0.491612
0.516603
0.494947
0.503173
0.498996
0.497707
0.501657
0.5074
0.495861
0.495737
0.500534
0.502198
SCALARS Mineral_mass_fraction_Quartz float 1
LOOKUP_TABLE default
0.481717
0.514626
0.515506
0.490142
0.504358
0.497788
0.501751
0.498131
0.499505
0.499769
0.497829
0.511634
0.491763
0.496247
0.50189
0.525607
0.528334
0.484042
0.479471
0.483498
0.501094
0.489837
0.507731
0.497075
0.494645
0.505732
0.49797
0.505893
0.496801
0.497336
0.507884
0.492399
0.500204
0.503891
0.500327
0.496466
0.502622
0.495078
0.502949
0.496386
0.499046
0.501401
0.497098
0.50687
0.495398
0.492717
0.503656
0.504443
0.508388
0.483397
0.505053
0.496827
0.501004
0.502293
0.498343
0.4926
0.504139
0.504263
0.499466
0.497802
SCALARS Mineral_depletion_ratio_Albite float 1
LOOKUP_TABLE default
23678.7
23461.9
23512.1
23589
23613.9
17586
18139.8
18803.9
19357.1
18749.9
17697
19761.5
17865.3
18620
17514
20750.9
21226.9
22802.1
24093
23366.9
18144.4
19490.1
19469.6
18301.2
18390.6
18074.6
19172.1
18461.1
18762.4
16779.6
22021.1
22359.5
22115.2
22387.8
21535.5
18612.4
18755.7
19023.8
18679.5
18530.1
18198.4
18512.5
19347.2
18831.6
17401.4
22747.6
22689.3
22792.4
22654.6
22709.5
18993
19430.8
17914.8
19068.6
18744.6
17365.2
17817.2
18411.4
18603.5
17257.3
SCALARS Mineral_depletion_ratio_Quartz float 1
LOOKUP_TABLE default
22165.7
22209.2
22083.6
22125.1
22279
18001
19011.8
18894.9
18719.7
18371.3
19187
19878.9
17902.6
18287.1
17809.9
22661.5
21377.2
21863
23520.8
22379.5
18306.3
18684.3
17950.4
17717
18352.8
19036.2
18159
18047.3
18219.3
18545.4
23076.6
22152.8
23427.4
22333.2
22052.8
18813.6
18203.1
17640.9
17808.6
20118
19505.7
18845
18544.3
18404.3
18347.5
22575.1
22368.2
22391
22335.4
22444.6
18164.1
19465.1
18393.8
18715.4
18535.5
18410.2
18948.1
17371.3
18964.9
18275.8
