# vtk DataFile Version 2.0
Unstructured Grid Ptrack_cells
ASCII

DATASET UNSTRUCTURED_GRID
POINTS 80 float
0 99.9903 0.0
0 99.8897 0.0
0 99.7892 0.0
0 99.6886 0.0
0 99.5881 0.0
0 99.4875 0.0
0 99.3378 0.0
0 99.1881 0.0
0 99.0383 0.0
0 98.8886 0.0
0 98.7389 0.0
0 98.5892 0.0
0 98.4394 0.0
0 98.2897 0.0
0 98.14 0.0
0 97.9903 0.0
0.1 99.9903 0.0
0.1 99.8897 0.0
0.1 99.7892 0.0
0.1 99.6886 0.0
0.1 99.5881 0.0
0.1 99.4875 0.0
0.1 99.3378 0.0
0.1 99.1881 0.0
0.1 99.0383 0.0
0.1 98.8886 0.0
0.1 98.7389 0.0
0.1 98.5892 0.0
0.1 98.4394 0.0
0.1 98.2897 0.0
0.1 98.14 0.0
0.1 97.9903 0.0
0.2 99.9903 0.0
0.2 99.8897 0.0
0.2 99.7892 0.0
0.2 99.6886 0.0
0.2 99.5881 0.0
0.2 99.4875 0.0
0.2 99.3378 0.0
0.2 99.1881 0.0
0.2 99.0383 0.0
0.2 98.8886 0.0
0.2 98.7389 0.0
0.2 98.5892 0.0
0.2 98.4394 0.0
0.2 98.2897 0.0
0.2 98.14 0.0
0.2 97.9903 0.0
0.3 99.9903 0.0
0.3 99.8897 0.0
0.3 99.7892 0.0
0.3 99.6886 0.0
0.3 99.5881 0.0
0.3 99.4875 0.0
0.3 99.3378 0.0
0.3 99.1881 0.0
0.3 99.0383 0.0
0.3 98.8886 0.0
0.3 98.7389 0.0
0.3 98.5892 0.0
0.3 98.4394 0.0
0.3 98.2897 0.0
0.3 98.14 0.0
0.3 97.9903 0.0
0.4 99.9903 0.0
0.4 99.8897 0.0
0.4 99.7892 0.0
0.4 99.6886 0.0
0.4 99.5881 0.0
0.4 99.4875 0.0
0.4 99.3378 0.0
0.4 99.1881 0.0
0.4 99.0383 0.0
0.4 98.8886 0.0
0.4 98.7389 0.0
0.4 98.5892 0.0
0.4 98.4394 0.0
0.4 98.2897 0.0
0.4 98.14 0.0
0.4 97.9903 0.0

CELLS 60 300
4 0 16 17 1
4 1 17 18 2
4 2 18 19 3
4 3 19 20 4
4 4 20 21 5
4 5 21 22 6
4 6 22 23 7
4 7 23 24 8
4 8 24 25 9
4 9 25 26 10
4 10 26 27 11
4 11 27 28 12
4 12 28 29 13
4 13 29 30 14
4 14 30 31 15
4 16 32 33 17
4 17 33 34 18
4 18 34 35 19
4 19 35 36 20
4 20 36 37 21
4 21 37 38 22
4 22 38 39 23
4 23 39 40 24
4 24 40 41 25
4 25 41 42 26
4 26 42 43 27
4 27 43 44 28
4 28 44 45 29
4 29 45 46 30
4 30 46 47 31
4 32 48 49 33
4 33 49 50 34
4 34 50 51 35
4 35 51 52 36
4 36 52 53 37
4 37 53 54 38
4 38 54 55 39
4 39 55 56 40
4 40 56 57 41
4 41 57 58 42
4 42 58 59 43
4 43 59 60 44
4 44 60 61 45
4 45 61 62 46
4 46 62 63 47
4 48 64 65 49
4 49 65 66 50
4 50 66 67 51
4 51 67 68 52
4 52 68 69 53
4 53 69 70 54
4 54 70 71 55
4 55 71 72 56
4 56 72 73 57
4 57 73 74 58
4 58 74 75 59
4 59 75 76 60
4 60 76 77 61
4 61 77 78 62
4 62 78 79 63

CELL_TYPES 60
9
9
9
9
9
9
9
9
9
9
9
9
9
9
9
9
9
9
9
9
9
9
9
9
9
9
9
9
9
9
9
9
9
9
9
9
9
9
9
9
9
9
9
9
9
9
9
9
9
9
9
9
9
9
9
9
9
9
9
9

CELL_DATA 60
SCALARS SOIL_OR_PARENT int 1
LOOKUP_TABLE default
1
1
1
1
1
0
0
0
0
0
0
0
0
0
0
1
1
1
1
1
0
0
0
0
0
0
0
0
0
0
1
1
1
1
1
0
0
0
0
0
0
0
0
0
0
1
1
1
1
1
0
0
0
0
0
0
0
0
0
0
SCALARS CELL_NUM int 1
LOOKUP_TABLE default
0
1
2
3
4
5
6
7
8
9
10
11
12
13
14
15
16
17
18
19
20
21
22
23
24
25
26
27
28
29
30
31
32
33
34
35
36
37
38
39
40
41
42
43
44
45
46
47
48
49
50
51
52
53
54
55
56
57
58
59
SCALARS Mineral_volume_percents_Albite float 1
LOOKUP_TABLE default
451877
469987
447712
472532
446510
467209
457997
458986
460873
456030
471002
446565
474357
452316
445330
458955
458628
469216
482205
437531
457395
468101
453119
462215
462104
452024
467624
460862
462187
441906
478732
454145
485130
441420
470901
463363
457566
456670
462263
461657
459877
456889
467741
454752
445720
476793
450031
452167
458543
463812
461959
462397
457157
461031
462510
454200
464704
456211
459363
449409
SCALARS Mineral_volume_percents_Quartz float 1
LOOKUP_TABLE default
450017
458686
467536
471520
455041
457575
454457
465526
459952
466382
449008
464417
460362
459208
443805
448690
438024
502789
441560
482655
457620
461935
466610
451746
465937
458670
461192
451606
466032
441002
492224
458025
438117
482765
459861
454921
464703
455500
462737
455320
460373
457249
460865
464680
443169
426053
461126
465711
451415
497097
460304
457264
459794
462172
460241
453913
467363
457172
455794
448539
SCALARS Mineral_specific_surface_area_m2perg_Albite float 1
LOOKUP_TABLE default
0.090566
0.090566
0.090566
0.090566
0.090566
0.090566
0.090566
0.090566
0.090566
0.090566
0.090566
0.090566
0.090566
0.090566
0.090566
0.090566
0.090566
0.090566
0.090566
0.090566
0.090566
0.090566
0.090566
0.090566
0.090566
0.090566
0.090566
0.090566
0.090566
0.090566
0.090566
0.090566
0.090566
0.090566
0.090566
0.090566
0.090566
0.090566
0.090566
0.090566
0.090566
0.090566
0.090566
0.090566
0.090566
0.090566
0.090566
0.090566
0.090566
0.090566
0.090566
0.090566
0.090566
0.090566
0.090566
0.090566
0.090566
0.090566
0.090566
0.090566
SCALARS Mineral_specific_surface_area_m2perg_Quartz float 1
LOOKUP_TABLE default
0.090566
0.090566
0.090566
0.090566
0.090566
0.090566
0.090566
0.090566
0.090566
0.090566
0.090566
0.090566
0.090566
0.090566
0.090566
0.090566
0.090566
0.090566
0.090566
0.090566
0.090566
0.090566
0.090566
0.090566
0.090566
0.090566
0.090566
0.090566
0.090566
0.090566
0.090566
0.090566
0.090566
0.090566
0.090566
0.090566
0.090566
0.090566
0.090566
0.090566
0.090566
0.090566
0.090566
0.090566
0.090566
0.090566
0.090566
0.090566
0.090566
0.090566
0.090566
0.090566
0.090566
0.090566
0.090566
0.090566
0.090566
0.090566
0.090566
0.090566
SCALARS Mineral_mass_kg_Albite float 1
LOOKUP_TABLE default
120413
125239
119303
125917
118983
185372
181717
182109
182858
180936
186876
177181
188208
179462
176691
122299
122212
125033
128494
116590
181478
185726
179781
183390
183346
179347
185536
182853
183379
175332
127569
121017
129274
117626
125482
183846
181546
181190
183409
183169
182462
181277
185583
180429
176845
127052
119921
120490
122189
123593
183289
183462
181384
182920
183507
180210
184378
181008
182259
178309
SCALARS Mineral_mass_kg_Quartz float 1
LOOKUP_TABLE default
119917
122227
124585
125647
121256
181549
180312
184704
182492
185044
178150
184264
182655
182197
176086
119563
116721
133979
117663
128614
181567
183279
185134
179237
184867
181984
182984
179181
184905
174973
131164
122051
116746
128644
122540
180496
184377
180726
183597
180655
182659
181420
182855
184368
175834
113531
122877
124099
120290
132462
182632
181426
182430
183373
182607
180096
185433
181389
180843
177964
SCALARS Mineral_surface_area_m2_Albite float 1
LOOKUP_TABLE default
1.09053e+07
1.13424e+07
1.08048e+07
1.14038e+07
1.07758e+07
1.67884e+07
1.64574e+07
1.64929e+07
1.65607e+07
1.63867e+07
1.69247e+07
1.60466e+07
1.70452e+07
1.62532e+07
1.60022e+07
1.10761e+07
1.10682e+07
1.13237e+07
1.16372e+07
1.05591e+07
1.64357e+07
1.68204e+07
1.62821e+07
1.66089e+07
1.66049e+07
1.62427e+07
1.68033e+07
1.65603e+07
1.66079e+07
1.58791e+07
1.15534e+07
1.096e+07
1.17078e+07
1.06529e+07
1.13644e+07
1.66502e+07
1.64419e+07
1.64097e+07
1.66106e+07
1.65889e+07
1.65249e+07
1.64175e+07
1.68075e+07
1.63408e+07
1.60162e+07
1.15066e+07
1.08607e+07
1.09123e+07
1.10662e+07
1.11933e+07
1.65997e+07
1.66155e+07
1.64272e+07
1.65664e+07
1.66195e+07
1.63209e+07
1.66984e+07
1.63932e+07
1.65064e+07
1.61488e+07
SCALARS Mineral_surface_area_m2_Quartz float 1
LOOKUP_TABLE default
1.08604e+07
1.10696e+07
1.12832e+07
1.13794e+07
1.09816e+07
1.64422e+07
1.63302e+07
1.67279e+07
1.65276e+07
1.67587e+07
1.61344e+07
1.6688e+07
1.65423e+07
1.65009e+07
1.59474e+07
1.08284e+07
1.0571e+07
1.2134e+07
1.06563e+07
1.16481e+07
1.64438e+07
1.65989e+07
1.67669e+07
1.62327e+07
1.67427e+07
1.64815e+07
1.65722e+07
1.62277e+07
1.67461e+07
1.58467e+07
1.1879e+07
1.10537e+07
1.05732e+07
1.16507e+07
1.1098e+07
1.63468e+07
1.66983e+07
1.63676e+07
1.66277e+07
1.63612e+07
1.65427e+07
1.64305e+07
1.65604e+07
1.66975e+07
1.59246e+07
1.02821e+07
1.11285e+07
1.12392e+07
1.08942e+07
1.19966e+07
1.65402e+07
1.6431e+07
1.65219e+07
1.66074e+07
1.6538e+07
1.63106e+07
1.67939e+07
1.64277e+07
1.63782e+07
1.61175e+07
SCALARS Solute_Concentration_Al+++ float 1
LOOKUP_TABLE default
6.13522e-06
8.5158e-06
1.03771e-05
1.14705e-05
1.16207e-05
1.10378e-05
9.28239e-06
7.55658e-06
6.36187e-06
4.69461e-06
3.68021e-06
3.22612e-06
2.59559e-06
2.25382e-06
1.72905e-06
6.13522e-06
8.5158e-06
1.03771e-05
1.14705e-05
1.16207e-05
1.10378e-05
9.28239e-06
7.55658e-06
6.36187e-06
4.69461e-06
3.68021e-06
3.22612e-06
2.59559e-06
2.25382e-06
1.72905e-06
6.13522e-06
8.5158e-06
1.03771e-05
1.14705e-05
1.16207e-05
1.10378e-05
9.28239e-06
7.55658e-06
6.36187e-06
4.69461e-06
3.68021e-06
3.22612e-06
2.59559e-06
2.25382e-06
1.72905e-06
6.13522e-06
8.5158e-06
1.03771e-05
1.14705e-05
1.16207e-05
1.10378e-05
9.28239e-06
7.55658e-06
6.36187e-06
4.69461e-06
3.68021e-06
3.22612e-06
2.59559e-06
2.25382e-06
1.72905e-06
SCALARS Solute_Concentration_CO2(aq) float 1
LOOKUP_TABLE default
0.00964234
0.0094933
0.00936644
0.00927138
0.00921234
0.00914699
0.00910561
0.00905555
0.0089879
0.00894332
0.00886696
0.00877443
0.00868895
0.00859295
0.00851923
0.00964234
0.0094933
0.00936644
0.00927138
0.00921234
0.00914699
0.00910561
0.00905555
0.0089879
0.00894332
0.00886696
0.00877443
0.00868895
0.00859295
0.00851923
0.00964234
0.0094933
0.00936644
0.00927138
0.00921234
0.00914699
0.00910561
0.00905555
0.0089879
0.00894332
0.00886696
0.00877443
0.00868895
0.00859295
0.00851923
0.00964234
0.0094933
0.00936644
0.00927138
0.00921234
0.00914699
0.00910561
0.00905555
0.0089879
0.00894332
0.00886696
0.00877443
0.00868895
0.00859295
0.00851923
SCALARS Solute_Concentration_Ca++ float 1
LOOKUP_TABLE default
9.0701e-05
9.07016e-05
9.07021e-05
9.07027e-05
9.07031e-05
9.07039e-05
9.07048e-05
9.07057e-05
9.07067e-05
9.07077e-05
9.07086e-05
9.07095e-05
9.07104e-05
9.07113e-05
9.07122e-05
9.0701e-05
9.07016e-05
9.07021e-05
9.07027e-05
9.07031e-05
9.07039e-05
9.07048e-05
9.07057e-05
9.07067e-05
9.07077e-05
9.07086e-05
9.07095e-05
9.07104e-05
9.07113e-05
9.07122e-05
9.0701e-05
9.07016e-05
9.07021e-05
9.07027e-05
9.07031e-05
9.07039e-05
9.07048e-05
9.07057e-05
9.07067e-05
9.07077e-05
9.07086e-05
9.07095e-05
9.07104e-05
9.07113e-05
9.07122e-05
9.0701e-05
9.07016e-05
9.07021e-05
9.07027e-05
9.07031e-05
9.07039e-05
9.07048e-05
9.07057e-05
9.07067e-05
9.07077e-05
9.07086e-05
9.07095e-05
9.07104e-05
9.07113e-05
9.07122e-05
SCALARS Solute_Concentration_Cl- float 1
LOOKUP_TABLE default
0.000465
0.000465
0.000465
0.000465
0.000465
0.000465
0.000465
0.000465
0.000465
0.000465
0.000465
0.000465
0.000465
0.000465
0.000465
0.000465
0.000465
0.000465
0.000465
0.000465
0.000465
0.000465
0.000465
0.000465
0.000465
0.000465
0.000465
0.000465
0.000465
0.000465
0.000465
0.000465
0.000465
0.000465
0.000465
0.000465
0.000465
0.000465
0.000465
0.000465
0.000465
0.000465
0.000465
0.000465
0.000465
0.000465
0.000465
0.000465
0.000465
0.000465
0.000465
0.000465
0.000465
0.000465
0.000465
0.000465
0.000465
0.000465
0.000465
0.000465
SCALARS Solute_Concentration_Fe++ float 1
LOOKUP_TABLE default
2.0998e-08
3.17274e-08
4.30936e-08
5.31417e-08
6.28811e-08
7.76673e-08
9.6105e-08
1.13267e-07
1.34249e-07
1.53977e-07
1.72772e-07
1.90613e-07
2.0914e-07
2.26572e-07
2.43091e-07
2.0998e-08
3.17274e-08
4.30936e-08
5.31417e-08
6.28811e-08
7.76673e-08
9.6105e-08
1.13267e-07
1.34249e-07
1.53977e-07
1.72772e-07
1.90613e-07
2.0914e-07
2.26572e-07
2.43091e-07
2.0998e-08
3.17274e-08
4.30936e-08
5.31417e-08
6.28811e-08
7.76673e-08
9.6105e-08
1.13267e-07
1.34249e-07
1.53977e-07
1.72772e-07
1.90613e-07
2.0914e-07
2.26572e-07
2.43091e-07
2.0998e-08
3.17274e-08
4.30936e-08
5.31417e-08
6.28811e-08
7.76673e-08
9.6105e-08
1.13267e-07
1.34249e-07
1.53977e-07
1.72772e-07
1.90613e-07
2.0914e-07
2.26572e-07
2.43091e-07
SCALARS Solute_Concentration_Fe+++ float 1
LOOKUP_TABLE default
8.35922e-09
1.2651e-08
1.71974e-08
2.12167e-08
2.51124e-08
3.10269e-08
3.8402e-08
4.52668e-08
5.36594e-08
6.15509e-08
6.90689e-08
7.62052e-08
8.36161e-08
9.05887e-08
9.71965e-08
8.35922e-09
1.2651e-08
1.71974e-08
2.12167e-08
2.51124e-08
3.10269e-08
3.8402e-08
4.52668e-08
5.36594e-08
6.15509e-08
6.90689e-08
7.62052e-08
8.36161e-08
9.05887e-08
9.71965e-08
8.35922e-09
1.2651e-08
1.71974e-08
2.12167e-08
2.51124e-08
3.10269e-08
3.8402e-08
4.52668e-08
5.36594e-08
6.15509e-08
6.90689e-08
7.62052e-08
8.36161e-08
9.05887e-08
9.71965e-08
8.35922e-09
1.2651e-08
1.71974e-08
2.12167e-08
2.51124e-08
3.10269e-08
3.8402e-08
4.52668e-08
5.36594e-08
6.15509e-08
6.90689e-08
7.62052e-08
8.36161e-08
9.05887e-08
9.71965e-08
SCALARS Solute_Concentration_H+ float 1
LOOKUP_TABLE default
-4.2519e-05
-5.2825e-05
-6.1633e-05
-6.80701e-05
-7.1606e-05
-7.47814e-05
-7.53747e-05
-7.63832e-05
-7.87919e-05
-7.93639e-05
-8.22268e-05
-8.6483e-05
-9.01021e-05
-9.45525e-05
-9.75938e-05
-4.2519e-05
-5.2825e-05
-6.1633e-05
-6.80701e-05
-7.1606e-05
-7.47814e-05
-7.53747e-05
-7.63832e-05
-7.87919e-05
-7.93639e-05
-8.22268e-05
-8.6483e-05
-9.01021e-05
-9.45525e-05
-9.75938e-05
-4.2519e-05
-5.2825e-05
-6.1633e-05
-6.80701e-05
-7.1606e-05
-7.47814e-05
-7.53747e-05
-7.63832e-05
-7.87919e-05
-7.93639e-05
-8.22268e-05
-8.6483e-05
-9.01021e-05
-9.45525e-05
-9.75938e-05
-4.2519e-05
-5.2825e-05
-6.1633e-05
-6.80701e-05
-7.1606e-05
-7.47814e-05
-7.53747e-05
-7.63832e-05
-7.87919e-05
-7.93639e-05
-8.22268e-05
-8.6483e-05
-9.01021e-05
-9.45525e-05
-9.75938e-05
SCALARS Solute_Concentration_K+ float 1
LOOKUP_TABLE default
1.89683e-05
2.0249e-05
2.15253e-05
2.27914e-05
2.41017e-05
2.62209e-05
2.84953e-05
3.09354e-05
3.33257e-05
3.55583e-05
3.78959e-05
4.00428e-05
4.20981e-05
4.40162e-05
4.58067e-05
1.89683e-05
2.0249e-05
2.15253e-05
2.27914e-05
2.41017e-05
2.62209e-05
2.84953e-05
3.09354e-05
3.33257e-05
3.55583e-05
3.78959e-05
4.00428e-05
4.20981e-05
4.40162e-05
4.58067e-05
1.89683e-05
2.0249e-05
2.15253e-05
2.27914e-05
2.41017e-05
2.62209e-05
2.84953e-05
3.09354e-05
3.33257e-05
3.55583e-05
3.78959e-05
4.00428e-05
4.20981e-05
4.40162e-05
4.58067e-05
1.89683e-05
2.0249e-05
2.15253e-05
2.27914e-05
2.41017e-05
2.62209e-05
2.84953e-05
3.09354e-05
3.33257e-05
3.55583e-05
3.78959e-05
4.00428e-05
4.20981e-05
4.40162e-05
4.58067e-05
SCALARS Solute_Concentration_Mg++ float 1
LOOKUP_TABLE default
6.88481e-05
6.88727e-05
6.88989e-05
6.8922e-05
6.89444e-05
6.89784e-05
6.90208e-05
6.90603e-05
6.91085e-05
6.91539e-05
6.91972e-05
6.92382e-05
6.92808e-05
6.93209e-05
6.93589e-05
6.88481e-05
6.88727e-05
6.88989e-05
6.8922e-05
6.89444e-05
6.89784e-05
6.90208e-05
6.90603e-05
6.91085e-05
6.91539e-05
6.91972e-05
6.92382e-05
6.92808e-05
6.93209e-05
6.93589e-05
6.88481e-05
6.88727e-05
6.88989e-05
6.8922e-05
6.89444e-05
6.89784e-05
6.90208e-05
6.90603e-05
6.91085e-05
6.91539e-05
6.91972e-05
6.92382e-05
6.92808e-05
6.93209e-05
6.93589e-05
6.88481e-05
6.88727e-05
6.88989e-05
6.8922e-05
6.89444e-05
6.89784e-05
6.90208e-05
6.90603e-05
6.91085e-05
6.91539e-05
6.91972e-05
6.92382e-05
6.92808e-05
6.93209e-05
6.93589e-05
SCALARS Solute_Concentration_NO3- float 1
LOOKUP_TABLE default
0.0001
0.0001
0.0001
0.0001
0.0001
0.0001
0.0001
0.0001
0.0001
0.0001
0.0001
0.0001
0.0001
0.0001
0.0001
0.0001
0.0001
0.0001
0.0001
0.0001
0.0001
0.0001
0.0001
0.0001
0.0001
0.0001
0.0001
0.0001
0.0001
0.0001
0.0001
0.0001
0.0001
0.0001
0.0001
0.0001
0.0001
0.0001
0.0001
0.0001
0.0001
0.0001
0.0001
0.0001
0.0001
0.0001
0.0001
0.0001
0.0001
0.0001
0.0001
0.0001
0.0001
0.0001
0.0001
0.0001
0.0001
0.0001
0.0001
0.0001
SCALARS Solute_Concentration_Na+ float 1
LOOKUP_TABLE default
0.000428932
0.00043073
0.000432588
0.0004344
0.000436098
0.000438786
0.000442225
0.000445836
0.000449272
0.000452458
0.000455878
0.000459208
0.000462517
0.000465937
0.000468632
0.000428932
0.00043073
0.000432588
0.0004344
0.000436098
0.000438786
0.000442225
0.000445836
0.000449272
0.000452458
0.000455878
0.000459208
0.000462517
0.000465937
0.000468632
0.000428932
0.00043073
0.000432588
0.0004344
0.000436098
0.000438786
0.000442225
0.000445836
0.000449272
0.000452458
0.000455878
0.000459208
0.000462517
0.000465937
0.000468632
0.000428932
0.00043073
0.000432588
0.0004344
0.000436098
0.000438786
0.000442225
0.000445836
0.000449272
0.000452458
0.000455878
0.000459208
0.000462517
0.000465937
0.000468632
SCALARS Solute_Concentration_SO4-- float 1
LOOKUP_TABLE default
0.000161
0.000161
0.000161
0.000161
0.000161
0.000161
0.000161
0.000161
0.000161
0.000161
0.000161
0.000161
0.000161
0.000161
0.000161
0.000161
0.000161
0.000161
0.000161
0.000161
0.000161
0.000161
0.000161
0.000161
0.000161
0.000161
0.000161
0.000161
0.000161
0.000161
0.000161
0.000161
0.000161
0.000161
0.000161
0.000161
0.000161
0.000161
0.000161
0.000161
0.000161
0.000161
0.000161
0.000161
0.000161
0.000161
0.000161
0.000161
0.000161
0.000161
0.000161
0.000161
0.000161
0.000161
0.000161
0.000161
0.000161
0.000161
0.000161
0.000161
SCALARS Solute_Concentration_SiO2(aq) float 1
LOOKUP_TABLE default
2.03017e-05
2.88766e-05
3.70441e-05
4.43254e-05
5.05245e-05
5.96054e-05
6.93382e-05
7.97699e-05
9.02986e-05
9.95322e-05
0.000110095
0.000120655
0.000130814
0.000141206
0.000149706
2.03017e-05
2.88766e-05
3.70441e-05
4.43254e-05
5.05245e-05
5.96054e-05
6.93382e-05
7.97699e-05
9.02986e-05
9.95322e-05
0.000110095
0.000120655
0.000130814
0.000141206
0.000149706
2.03017e-05
2.88766e-05
3.70441e-05
4.43254e-05
5.05245e-05
5.96054e-05
6.93382e-05
7.97699e-05
9.02986e-05
9.95322e-05
0.000110095
0.000120655
0.000130814
0.000141206
0.000149706
2.03017e-05
2.88766e-05
3.70441e-05
4.43254e-05
5.05245e-05
5.96054e-05
6.93382e-05
7.97699e-05
9.02986e-05
9.95322e-05
0.000110095
0.000120655
0.000130814
0.000141206
0.000149706
SCALARS Solute_Concentration_Sr++ float 1
LOOKUP_TABLE default
5.07e-07
5.07e-07
5.07e-07
5.07e-07
5.07e-07
5.07e-07
5.07e-07
5.07e-07
5.07e-07
5.07e-07
5.07e-07
5.07e-07
5.07e-07
5.07e-07
5.07e-07
5.07e-07
5.07e-07
5.07e-07
5.07e-07
5.07e-07
5.07e-07
5.07e-07
5.07e-07
5.07e-07
5.07e-07
5.07e-07
5.07e-07
5.07e-07
5.07e-07
5.07e-07
5.07e-07
5.07e-07
5.07e-07
5.07e-07
5.07e-07
5.07e-07
5.07e-07
5.07e-07
5.07e-07
5.07e-07
5.07e-07
5.07e-07
5.07e-07
5.07e-07
5.07e-07
5.07e-07
5.07e-07
5.07e-07
5.07e-07
5.07e-07
5.07e-07
5.07e-07
5.07e-07
5.07e-07
5.07e-07
5.07e-07
5.07e-07
5.07e-07
5.07e-07
5.07e-07
SCALARS Reaction_rates_Moles_per_L_porusmedium_per_second_Albite float 1
LOOKUP_TABLE default
1.24993e-16
1.26242e-15
7.24827e-15
1.47226e-14
3.55173e-14
5.64539e-14
7.16344e-14
7.35283e-14
6.41013e-14
6.95899e-14
6.43266e-14
5.45646e-14
6.00298e-14
5.77319e-14
6.03845e-14
1.24993e-16
1.26242e-15
7.24827e-15
1.47226e-14
3.55173e-14
5.64539e-14
7.16344e-14
7.35283e-14
6.41013e-14
6.95899e-14
6.43266e-14
5.45646e-14
6.00298e-14
5.77319e-14
6.03845e-14
1.24993e-16
1.26242e-15
7.24827e-15
1.47226e-14
3.55173e-14
5.64539e-14
7.16344e-14
7.35283e-14
6.41013e-14
6.95899e-14
6.43266e-14
5.45646e-14
6.00298e-14
5.77319e-14
6.03845e-14
1.24993e-16
1.26242e-15
7.24827e-15
1.47226e-14
3.55173e-14
5.64539e-14
7.16344e-14
7.35283e-14
6.41013e-14
6.95899e-14
6.43266e-14
5.45646e-14
6.00298e-14
5.77319e-14
6.03845e-14
SCALARS Reaction_rates_Moles_per_L_porusmedium_per_second_Quartz float 1
LOOKUP_TABLE default
-3.74274e-14
-3.59755e-14
-3.58475e-14
-3.3978e-14
-3.84667e-14
-4.86591e-14
-4.28169e-14
-4.46085e-14
-4.45025e-14
-4.21593e-14
-4.33433e-14
-3.99805e-14
-4.09584e-14
-3.8104e-14
-4.27348e-14
-3.74274e-14
-3.59755e-14
-3.58475e-14
-3.3978e-14
-3.84667e-14
-4.86591e-14
-4.28169e-14
-4.46085e-14
-4.45025e-14
-4.21593e-14
-4.33433e-14
-3.99805e-14
-4.09584e-14
-3.8104e-14
-4.27348e-14
-3.74274e-14
-3.59755e-14
-3.58475e-14
-3.3978e-14
-3.84667e-14
-4.86591e-14
-4.28169e-14
-4.46085e-14
-4.45025e-14
-4.21593e-14
-4.33433e-14
-3.99805e-14
-4.09584e-14
-3.8104e-14
-4.27348e-14
-3.74274e-14
-3.59755e-14
-3.58475e-14
-3.3978e-14
-3.84667e-14
-4.86591e-14
-4.28169e-14
-4.46085e-14
-4.45025e-14
-4.21593e-14
-4.33433e-14
-3.99805e-14
-4.09584e-14
-3.8104e-14
-4.27348e-14
SCALARS Mineral_mass_fraction_Albite float 1
LOOKUP_TABLE default
0.501014
0.505961
0.489406
0.500529
0.495376
0.505104
0.501903
0.496543
0.500495
0.494512
0.511704
0.490418
0.507335
0.496306
0.500845
0.505538
0.511244
0.483082
0.521538
0.476007
0.499886
0.50325
0.492827
0.50561
0.497983
0.496435
0.503395
0.504969
0.497978
0.500507
0.493197
0.497923
0.524925
0.478109
0.50581
0.504505
0.496218
0.500633
0.499755
0.503386
0.499741
0.499813
0.50363
0.494721
0.501409
0.527497
0.494047
0.492783
0.503836
0.483038
0.500884
0.502736
0.498598
0.499401
0.501208
0.50016
0.498609
0.499491
0.501913
0.50048
SCALARS Mineral_mass_fraction_Quartz float 1
LOOKUP_TABLE default
0.498986
0.494039
0.510594
0.499471
0.504624
0.494896
0.498097
0.503457
0.499505
0.505488
0.488296
0.509582
0.492665
0.503694
0.499155
0.494462
0.488756
0.516918
0.478462
0.523993
0.500114
0.49675
0.507173
0.49439
0.502017
0.503565
0.496605
0.495031
0.502022
0.499493
0.506803
0.502077
0.475075
0.521891
0.49419
0.495495
0.503782
0.499367
0.500245
0.496614
0.500259
0.500187
0.49637
0.505279
0.498591
0.472503
0.505953
0.507217
0.496164
0.516962
0.499116
0.497264
0.501402
0.500599
0.498792
0.49984
0.501391
0.500509
0.498087
0.49952
SCALARS Mineral_depletion_ratio_Albite float 1
LOOKUP_TABLE default
14536.9
14440.2
14526.7
14457.4
14453.3
10756.8
10986.2
11485.1
11786
11501.5
10826.9
11955.9
11043.5
11286.9
10997.9
13933
13718.2
13916.9
13818.4
13347.2
10988.3
11985.9
11815.6
11184.5
11351.3
10894.3
11751.1
11253.2
11528
10469
12876
13786.6
14465.1
13422.2
13411
11364.3
11450.4
11607.5
11407
11357.7
11095.9
11260
11883
11434.4
10973.9
13964.1
13943.5
13986.5
13850.6
13964.1
11522.4
11975.3
10901.9
11588.9
11518.1
10568.7
10885.9
11175.7
11371.5
10768.6
SCALARS Mineral_depletion_ratio_Quartz float 1
LOOKUP_TABLE default
13691.5
13614.3
13618.3
13593
13612.9
10943.6
11534.2
11555.9
11420.4
11299.8
11580.1
12341.7
10880.5
11129.6
11216.9
13106.3
12965.8
14521.3
13732.6
14461
11192.3
11364.2
11025
10759.6
11205.5
11675.4
11060.9
11031.7
11108.8
11469.2
13995.5
14303.9
13645.6
14688.7
13062.5
11402.9
11193
10752.3
10825
12225.3
11923.7
11549.3
11304.1
11242.6
11617.4
13746
13705.5
13757
13729.6
13676.2
11122.3
11863.9
11193.7
11474.4
11323.4
11137.2
11708.1
10545.3
11513.3
11458.9
