# vtk DataFile Version 2.0
Unstructured Grid Ptrack_cells
ASCII

DATASET UNSTRUCTURED_GRID
POINTS 80 float
0 99.999 0.0
0 99.899 0.0
0 99.7989 0.0
0 99.6989 0.0
0 99.5988 0.0
0 99.4988 0.0
0 99.3488 0.0
0 99.1988 0.0
0 99.0488 0.0
0 98.8989 0.0
0 98.7489 0.0
0 98.5989 0.0
0 98.4489 0.0
0 98.299 0.0
0 98.149 0.0
0 97.999 0.0
0.1 99.999 0.0
0.1 99.899 0.0
0.1 99.7989 0.0
0.1 99.6989 0.0
0.1 99.5988 0.0
0.1 99.4988 0.0
0.1 99.3488 0.0
0.1 99.1988 0.0
0.1 99.0488 0.0
0.1 98.8989 0.0
0.1 98.7489 0.0
0.1 98.5989 0.0
0.1 98.4489 0.0
0.1 98.299 0.0
0.1 98.149 0.0
0.1 97.999 0.0
0.2 99.999 0.0
0.2 99.899 0.0
0.2 99.7989 0.0
0.2 99.6989 0.0
0.2 99.5988 0.0
0.2 99.4988 0.0
0.2 99.3488 0.0
0.2 99.1988 0.0
0.2 99.0488 0.0
0.2 98.8989 0.0
0.2 98.7489 0.0
0.2 98.5989 0.0
0.2 98.4489 0.0
0.2 98.299 0.0
0.2 98.149 0.0
0.2 97.999 0.0
0.3 99.999 0.0
0.3 99.899 0.0
0.3 99.7989 0.0
0.3 99.6989 0.0
0.3 99.5988 0.0
0.3 99.4988 0.0
0.3 99.3488 0.0
0.3 99.1988 0.0
0.3 99.0488 0.0
0.3 98.8989 0.0
0.3 98.7489 0.0
0.3 98.5989 0.0
0.3 98.4489 0.0
0.3 98.299 0.0
0.3 98.149 0.0
0.3 97.999 0.0
0.4 99.999 0.0
0.4 99.899 0.0
0.4 99.7989 0.0
0.4 99.6989 0.0
0.4 99.5988 0.0
0.4 99.4988 0.0
0.4 99.3488 0.0
0.4 99.1988 0.0
0.4 99.0488 0.0
0.4 98.8989 0.0
0.4 98.7489 0.0
0.4 98.5989 0.0
0.4 98.4489 0.0
0.4 98.299 0.0
0.4 98.149 0.0
0.4 97.999 0.0

CELLS 60 300
4 0 16 17 1
4 1 17 18 2
4 2 18 19 3
4 3 19 20 4
4 4 20 21 5
4 5 21 22 6
4 6 22 23 7
4 7 23 24 8
4 8 24 25 9
4 9 25 26 10
4 10 26 27 11
4 11 27 28 12
4 12 28 29 13
4 13 29 30 14
4 14 30 31 15
4 16 32 33 17
4 17 33 34 18
4 18 34 35 19
4 19 35 36 20
4 20 36 37 21
4 21 37 38 22
4 22 38 39 23
4 23 39 40 24
4 24 40 41 25
4 25 41 42 26
4 26 42 43 27
4 27 43 44 28
4 28 44 45 29
4 29 45 46 30
4 30 46 47 31
4 32 48 49 33
4 33 49 50 34
4 34 50 51 35
4 35 51 52 36
4 36 52 53 37
4 37 53 54 38
4 38 54 55 39
4 39 55 56 40
4 40 56 57 41
4 41 57 58 42
4 42 58 59 43
4 43 59 60 44
4 44 60 61 45
4 45 61 62 46
4 46 62 63 47
4 48 64 65 49
4 49 65 66 50
4 50 66 67 51
4 51 67 68 52
4 52 68 69 53
4 53 69 70 54
4 54 70 71 55
4 55 71 72 56
4 56 72 73 57
4 57 73 74 58
4 58 74 75 59
4 59 75 76 60
4 60 76 77 61
4 61 77 78 62
4 62 78 79 63

CELL_TYPES 60
9
9
9
9
9
9
9
9
9
9
9
9
9
9
9
9
9
9
9
9
9
9
9
9
9
9
9
9
9
9
9
9
9
9
9
9
9
9
9
9
9
9
9
9
9
9
9
9
9
9
9
9
9
9
9
9
9
9
9
9

CELL_DATA 60
SCALARS SOIL_OR_PARENT int 1
LOOKUP_TABLE default
1
1
1
1
1
0
0
0
0
0
0
0
0
0
0
1
1
1
1
1
0
0
0
0
0
0
0
0
0
0
1
1
1
1
1
0
0
0
0
0
0
0
0
0
0
1
1
1
1
1
0
0
0
0
0
0
0
0
0
0
SCALARS CELL_NUM int 1
LOOKUP_TABLE default
0
1
2
3
4
5
6
7
8
9
10
11
12
13
14
15
16
17
18
19
20
21
22
23
24
25
26
27
28
29
30
31
32
33
34
35
36
37
38
39
40
41
42
43
44
45
46
47
48
49
50
51
52
53
54
55
56
57
58
59
SCALARS Mineral_volume_percents_Albite float 1
LOOKUP_TABLE default
10697.4
9855.55
10702.3
9637.95
10295.5
10239.4
10226.9
10224.8
10252.3
10284
10214.5
10231.7
10246.2
10253.9
10251.7
17074.3
16217.2
16018.5
15737.3
15752.3
10252.8
10250.4
10279.1
10207.8
10266.4
10228.2
10250.8
10264.9
10227.3
10240.7
10430.3
10448.6
9674.66
10356.1
10209.7
10227.8
10253
10238.2
10256.4
10271.1
10221.4
10268.3
10198
10267.7
10216.8
15973.9
15011.9
12336.6
12661.9
14801.7
10267.2
10247.3
10230.6
10231.7
10264.1
10226.1
10276.6
10228.4
10262
10224.3
SCALARS Mineral_volume_percents_Quartz float 1
LOOKUP_TABLE default
9783.92
10121.4
10767.5
10212.6
10001
10181.4
10198
10185
10213.4
10204.8
10206.9
10242.7
10148.6
10203.9
10185
15306.5
18055.6
15598.2
15215.7
16437.4
10202.2
10168.1
10169.9
10230.2
10177.9
10189.7
10209.8
10164.5
10225.2
10177.9
10606.2
9391.3
9817.89
10657.4
10482
10150.5
10210.8
10197.1
10172.7
10236.6
10147.8
10197.2
10211.8
10187.3
10190.9
13237.9
15580.4
13426.6
14538.5
13912.4
10210.9
10193.5
10204.4
10209.5
10151.7
10196
10193.3
10215.6
10170.7
10188.5
SCALARS Mineral_specific_surface_area_m2perg_Albite float 1
LOOKUP_TABLE default
0.090566
0.090566
0.090566
0.090566
0.090566
0.090566
0.090566
0.090566
0.090566
0.090566
0.090566
0.090566
0.090566
0.090566
0.090566
0.090566
0.090566
0.090566
0.090566
0.090566
0.090566
0.090566
0.090566
0.090566
0.090566
0.090566
0.090566
0.090566
0.090566
0.090566
0.090566
0.090566
0.090566
0.090566
0.090566
0.090566
0.090566
0.090566
0.090566
0.090566
0.090566
0.090566
0.090566
0.090566
0.090566
0.090566
0.090566
0.090566
0.090566
0.090566
0.090566
0.090566
0.090566
0.090566
0.090566
0.090566
0.090566
0.090566
0.090566
0.090566
SCALARS Mineral_specific_surface_area_m2perg_Quartz float 1
LOOKUP_TABLE default
0.090566
0.090566
0.090566
0.090566
0.090566
0.090566
0.090566
0.090566
0.090566
0.090566
0.090566
0.090566
0.090566
0.090566
0.090566
0.090566
0.090566
0.090566
0.090566
0.090566
0.090566
0.090566
0.090566
0.090566
0.090566
0.090566
0.090566
0.090566
0.090566
0.090566
0.090566
0.090566
0.090566
0.090566
0.090566
0.090566
0.090566
0.090566
0.090566
0.090566
0.090566
0.090566
0.090566
0.090566
0.090566
0.090566
0.090566
0.090566
0.090566
0.090566
0.090566
0.090566
0.090566
0.090566
0.090566
0.090566
0.090566
0.090566
0.090566
0.090566
SCALARS Mineral_mass_kg_Albite float 1
LOOKUP_TABLE default
2836.39
2613.17
2837.67
2555.48
2729.82
4069.4
4064.43
4063.61
4074.54
4087.14
4059.51
4066.37
4072.1
4075.16
4074.29
4527.19
4299.95
4247.27
4172.71
4176.67
4074.74
4073.79
4085.2
4056.84
4080.15
4064.95
4073.95
4079.55
4064.6
4069.93
2765.56
2770.41
2565.21
2745.89
2707.07
4064.8
4074.82
4068.92
4076.16
4082
4062.26
4080.89
4052.95
4080.65
4060.43
4235.44
3980.36
3271.01
3357.28
3924.64
4080.46
4072.56
4065.91
4066.35
4079.22
4064.12
4084.2
4065.03
4078.39
4063.4
SCALARS Mineral_mass_kg_Quartz float 1
LOOKUP_TABLE default
2594.18
2683.66
2854.97
2707.83
2651.74
4046.34
4052.95
4047.79
4059.08
4055.67
4056.47
4070.74
4033.32
4055.29
4047.8
4058.48
4787.38
4135.81
4034.4
4358.34
4054.61
4041.05
4041.78
4065.77
4044.98
4049.66
4057.65
4039.64
4063.77
4044.98
2812.21
2490.08
2603.18
2825.79
2779.29
4034.06
4058.03
4052.58
4042.9
4068.31
4033.01
4052.63
4058.44
4048.69
4050.15
3510
4131.09
3560.02
3854.84
3688.84
4058.07
4051.15
4055.51
4057.52
4034.55
4052.17
4051.09
4059.94
4042.12
4049.18
SCALARS Mineral_surface_area_m2_Albite float 1
LOOKUP_TABLE default
256881
236665
256997
231439
247229
368550
368099
368025
369015
370157
367654
368275
368794
369071
368992
410010
389430
384659
377906
378264
369033
368947
369980
367412
369523
368147
368962
369468
368115
368598
250465
250905
232321
248684
245168
368133
369041
368506
369162
369691
367903
369590
367060
369568
367737
383587
360485
296242
304055
355439
369551
368835
368233
368273
369439
368071
369890
368154
369364
368006
SCALARS Mineral_surface_area_m2_Quartz float 1
LOOKUP_TABLE default
234945
243048
258563
245238
240158
366461
367059
366593
367615
367306
367379
368671
365282
367271
366594
367560
433574
374564
365380
394717
367210
365982
366048
368220
366338
366761
367485
365854
368040
366338
254691
225516
235760
255920
251709
365349
367520
367026
366149
368451
365254
367030
367557
366673
366806
317887
374137
322417
349118
334084
367523
366896
367291
367473
365393
366989
366891
367692
366079
366719
SCALARS Solute_Concentration_Al+++ float 1
LOOKUP_TABLE default
6.13522e-06
8.5158e-06
1.03771e-05
1.14705e-05
1.16207e-05
1.10378e-05
9.28239e-06
7.55658e-06
6.36187e-06
4.69461e-06
3.68021e-06
3.22612e-06
2.59559e-06
2.25382e-06
1.72905e-06
6.13522e-06
8.5158e-06
1.03771e-05
1.14705e-05
1.16207e-05
1.10378e-05
9.28239e-06
7.55658e-06
6.36187e-06
4.69461e-06
3.68021e-06
3.22612e-06
2.59559e-06
2.25382e-06
1.72905e-06
6.13522e-06
8.5158e-06
1.03771e-05
1.14705e-05
1.16207e-05
1.10378e-05
9.28239e-06
7.55658e-06
6.36187e-06
4.69461e-06
3.68021e-06
3.22612e-06
2.59559e-06
2.25382e-06
1.72905e-06
6.13522e-06
8.5158e-06
1.03771e-05
1.14705e-05
1.16207e-05
1.10378e-05
9.28239e-06
7.55658e-06
6.36187e-06
4.69461e-06
3.68021e-06
3.22612e-06
2.59559e-06
2.25382e-06
1.72905e-06
SCALARS Solute_Concentration_CO2(aq) float 1
LOOKUP_TABLE default
0.00964234
0.0094933
0.00936644
0.00927138
0.00921234
0.00914699
0.00910561
0.00905555
0.0089879
0.00894332
0.00886696
0.00877443
0.00868895
0.00859295
0.00851923
0.00964234
0.0094933
0.00936644
0.00927138
0.00921234
0.00914699
0.00910561
0.00905555
0.0089879
0.00894332
0.00886696
0.00877443
0.00868895
0.00859295
0.00851923
0.00964234
0.0094933
0.00936644
0.00927138
0.00921234
0.00914699
0.00910561
0.00905555
0.0089879
0.00894332
0.00886696
0.00877443
0.00868895
0.00859295
0.00851923
0.00964234
0.0094933
0.00936644
0.00927138
0.00921234
0.00914699
0.00910561
0.00905555
0.0089879
0.00894332
0.00886696
0.00877443
0.00868895
0.00859295
0.00851923
SCALARS Solute_Concentration_Ca++ float 1
LOOKUP_TABLE default
9.0701e-05
9.07016e-05
9.07021e-05
9.07027e-05
9.07031e-05
9.07039e-05
9.07048e-05
9.07057e-05
9.07067e-05
9.07077e-05
9.07086e-05
9.07095e-05
9.07104e-05
9.07113e-05
9.07122e-05
9.0701e-05
9.07016e-05
9.07021e-05
9.07027e-05
9.07031e-05
9.07039e-05
9.07048e-05
9.07057e-05
9.07067e-05
9.07077e-05
9.07086e-05
9.07095e-05
9.07104e-05
9.07113e-05
9.07122e-05
9.0701e-05
9.07016e-05
9.07021e-05
9.07027e-05
9.07031e-05
9.07039e-05
9.07048e-05
9.07057e-05
9.07067e-05
9.07077e-05
9.07086e-05
9.07095e-05
9.07104e-05
9.07113e-05
9.07122e-05
9.0701e-05
9.07016e-05
9.07021e-05
9.07027e-05
9.07031e-05
9.07039e-05
9.07048e-05
9.07057e-05
9.07067e-05
9.07077e-05
9.07086e-05
9.07095e-05
9.07104e-05
9.07113e-05
9.07122e-05
SCALARS Solute_Concentration_Cl- float 1
LOOKUP_TABLE default
0.000465
0.000465
0.000465
0.000465
0.000465
0.000465
0.000465
0.000465
0.000465
0.000465
0.000465
0.000465
0.000465
0.000465
0.000465
0.000465
0.000465
0.000465
0.000465
0.000465
0.000465
0.000465
0.000465
0.000465
0.000465
0.000465
0.000465
0.000465
0.000465
0.000465
0.000465
0.000465
0.000465
0.000465
0.000465
0.000465
0.000465
0.000465
0.000465
0.000465
0.000465
0.000465
0.000465
0.000465
0.000465
0.000465
0.000465
0.000465
0.000465
0.000465
0.000465
0.000465
0.000465
0.000465
0.000465
0.000465
0.000465
0.000465
0.000465
0.000465
SCALARS Solute_Concentration_Fe++ float 1
LOOKUP_TABLE default
2.0998e-08
3.17274e-08
4.30936e-08
5.31417e-08
6.28811e-08
7.76673e-08
9.6105e-08
1.13267e-07
1.34249e-07
1.53977e-07
1.72772e-07
1.90613e-07
2.0914e-07
2.26572e-07
2.43091e-07
2.0998e-08
3.17274e-08
4.30936e-08
5.31417e-08
6.28811e-08
7.76673e-08
9.6105e-08
1.13267e-07
1.34249e-07
1.53977e-07
1.72772e-07
1.90613e-07
2.0914e-07
2.26572e-07
2.43091e-07
2.0998e-08
3.17274e-08
4.30936e-08
5.31417e-08
6.28811e-08
7.76673e-08
9.6105e-08
1.13267e-07
1.34249e-07
1.53977e-07
1.72772e-07
1.90613e-07
2.0914e-07
2.26572e-07
2.43091e-07
2.0998e-08
3.17274e-08
4.30936e-08
5.31417e-08
6.28811e-08
7.76673e-08
9.6105e-08
1.13267e-07
1.34249e-07
1.53977e-07
1.72772e-07
1.90613e-07
2.0914e-07
2.26572e-07
2.43091e-07
SCALARS Solute_Concentration_Fe+++ float 1
LOOKUP_TABLE default
8.35922e-09
1.2651e-08
1.71974e-08
2.12167e-08
2.51124e-08
3.10269e-08
3.8402e-08
4.52668e-08
5.36594e-08
6.15509e-08
6.90689e-08
7.62052e-08
8.36161e-08
9.05887e-08
9.71965e-08
8.35922e-09
1.2651e-08
1.71974e-08
2.12167e-08
2.51124e-08
3.10269e-08
3.8402e-08
4.52668e-08
5.36594e-08
6.15509e-08
6.90689e-08
7.62052e-08
8.36161e-08
9.05887e-08
9.71965e-08
8.35922e-09
1.2651e-08
1.71974e-08
2.12167e-08
2.51124e-08
3.10269e-08
3.8402e-08
4.52668e-08
5.36594e-08
6.15509e-08
6.90689e-08
7.62052e-08
8.36161e-08
9.05887e-08
9.71965e-08
8.35922e-09
1.2651e-08
1.71974e-08
2.12167e-08
2.51124e-08
3.10269e-08
3.8402e-08
4.52668e-08
5.36594e-08
6.15509e-08
6.90689e-08
7.62052e-08
8.36161e-08
9.05887e-08
9.71965e-08
SCALARS Solute_Concentration_H+ float 1
LOOKUP_TABLE default
-4.2519e-05
-5.2825e-05
-6.1633e-05
-6.80701e-05
-7.1606e-05
-7.47814e-05
-7.53747e-05
-7.63832e-05
-7.87919e-05
-7.93639e-05
-8.22268e-05
-8.6483e-05
-9.01021e-05
-9.45525e-05
-9.75938e-05
-4.2519e-05
-5.2825e-05
-6.1633e-05
-6.80701e-05
-7.1606e-05
-7.47814e-05
-7.53747e-05
-7.63832e-05
-7.87919e-05
-7.93639e-05
-8.22268e-05
-8.6483e-05
-9.01021e-05
-9.45525e-05
-9.75938e-05
-4.2519e-05
-5.2825e-05
-6.1633e-05
-6.80701e-05
-7.1606e-05
-7.47814e-05
-7.53747e-05
-7.63832e-05
-7.87919e-05
-7.93639e-05
-8.22268e-05
-8.6483e-05
-9.01021e-05
-9.45525e-05
-9.75938e-05
-4.2519e-05
-5.2825e-05
-6.1633e-05
-6.80701e-05
-7.1606e-05
-7.47814e-05
-7.53747e-05
-7.63832e-05
-7.87919e-05
-7.93639e-05
-8.22268e-05
-8.6483e-05
-9.01021e-05
-9.45525e-05
-9.75938e-05
SCALARS Solute_Concentration_K+ float 1
LOOKUP_TABLE default
1.89683e-05
2.0249e-05
2.15253e-05
2.27914e-05
2.41017e-05
2.62209e-05
2.84953e-05
3.09354e-05
3.33257e-05
3.55583e-05
3.78959e-05
4.00428e-05
4.20981e-05
4.40162e-05
4.58067e-05
1.89683e-05
2.0249e-05
2.15253e-05
2.27914e-05
2.41017e-05
2.62209e-05
2.84953e-05
3.09354e-05
3.33257e-05
3.55583e-05
3.78959e-05
4.00428e-05
4.20981e-05
4.40162e-05
4.58067e-05
1.89683e-05
2.0249e-05
2.15253e-05
2.27914e-05
2.41017e-05
2.62209e-05
2.84953e-05
3.09354e-05
3.33257e-05
3.55583e-05
3.78959e-05
4.00428e-05
4.20981e-05
4.40162e-05
4.58067e-05
1.89683e-05
2.0249e-05
2.15253e-05
2.27914e-05
2.41017e-05
2.62209e-05
2.84953e-05
3.09354e-05
3.33257e-05
3.55583e-05
3.78959e-05
4.00428e-05
4.20981e-05
4.40162e-05
4.58067e-05
SCALARS Solute_Concentration_Mg++ float 1
LOOKUP_TABLE default
6.88481e-05
6.88727e-05
6.88989e-05
6.8922e-05
6.89444e-05
6.89784e-05
6.90208e-05
6.90603e-05
6.91085e-05
6.91539e-05
6.91972e-05
6.92382e-05
6.92808e-05
6.93209e-05
6.93589e-05
6.88481e-05
6.88727e-05
6.88989e-05
6.8922e-05
6.89444e-05
6.89784e-05
6.90208e-05
6.90603e-05
6.91085e-05
6.91539e-05
6.91972e-05
6.92382e-05
6.92808e-05
6.93209e-05
6.93589e-05
6.88481e-05
6.88727e-05
6.88989e-05
6.8922e-05
6.89444e-05
6.89784e-05
6.90208e-05
6.90603e-05
6.91085e-05
6.91539e-05
6.91972e-05
6.92382e-05
6.92808e-05
6.93209e-05
6.93589e-05
6.88481e-05
6.88727e-05
6.88989e-05
6.8922e-05
6.89444e-05
6.89784e-05
6.90208e-05
6.90603e-05
6.91085e-05
6.91539e-05
6.91972e-05
6.92382e-05
6.92808e-05
6.93209e-05
6.93589e-05
SCALARS Solute_Concentration_NO3- float 1
LOOKUP_TABLE default
0.0001
0.0001
0.0001
0.0001
0.0001
0.0001
0.0001
0.0001
0.0001
0.0001
0.0001
0.0001
0.0001
0.0001
0.0001
0.0001
0.0001
0.0001
0.0001
0.0001
0.0001
0.0001
0.0001
0.0001
0.0001
0.0001
0.0001
0.0001
0.0001
0.0001
0.0001
0.0001
0.0001
0.0001
0.0001
0.0001
0.0001
0.0001
0.0001
0.0001
0.0001
0.0001
0.0001
0.0001
0.0001
0.0001
0.0001
0.0001
0.0001
0.0001
0.0001
0.0001
0.0001
0.0001
0.0001
0.0001
0.0001
0.0001
0.0001
0.0001
SCALARS Solute_Concentration_Na+ float 1
LOOKUP_TABLE default
0.000428932
0.00043073
0.000432588
0.0004344
0.000436098
0.000438786
0.000442225
0.000445836
0.000449272
0.000452458
0.000455878
0.000459208
0.000462517
0.000465937
0.000468632
0.000428932
0.00043073
0.000432588
0.0004344
0.000436098
0.000438786
0.000442225
0.000445836
0.000449272
0.000452458
0.000455878
0.000459208
0.000462517
0.000465937
0.000468632
0.000428932
0.00043073
0.000432588
0.0004344
0.000436098
0.000438786
0.000442225
0.000445836
0.000449272
0.000452458
0.000455878
0.000459208
0.000462517
0.000465937
0.000468632
0.000428932
0.00043073
0.000432588
0.0004344
0.000436098
0.000438786
0.000442225
0.000445836
0.000449272
0.000452458
0.000455878
0.000459208
0.000462517
0.000465937
0.000468632
SCALARS Solute_Concentration_SO4-- float 1
LOOKUP_TABLE default
0.000161
0.000161
0.000161
0.000161
0.000161
0.000161
0.000161
0.000161
0.000161
0.000161
0.000161
0.000161
0.000161
0.000161
0.000161
0.000161
0.000161
0.000161
0.000161
0.000161
0.000161
0.000161
0.000161
0.000161
0.000161
0.000161
0.000161
0.000161
0.000161
0.000161
0.000161
0.000161
0.000161
0.000161
0.000161
0.000161
0.000161
0.000161
0.000161
0.000161
0.000161
0.000161
0.000161
0.000161
0.000161
0.000161
0.000161
0.000161
0.000161
0.000161
0.000161
0.000161
0.000161
0.000161
0.000161
0.000161
0.000161
0.000161
0.000161
0.000161
SCALARS Solute_Concentration_SiO2(aq) float 1
LOOKUP_TABLE default
2.03017e-05
2.88766e-05
3.70441e-05
4.43254e-05
5.05245e-05
5.96054e-05
6.93382e-05
7.97699e-05
9.02986e-05
9.95322e-05
0.000110095
0.000120655
0.000130814
0.000141206
0.000149706
2.03017e-05
2.88766e-05
3.70441e-05
4.43254e-05
5.05245e-05
5.96054e-05
6.93382e-05
7.97699e-05
9.02986e-05
9.95322e-05
0.000110095
0.000120655
0.000130814
0.000141206
0.000149706
2.03017e-05
2.88766e-05
3.70441e-05
4.43254e-05
5.05245e-05
5.96054e-05
6.93382e-05
7.97699e-05
9.02986e-05
9.95322e-05
0.000110095
0.000120655
0.000130814
0.000141206
0.000149706
2.03017e-05
2.88766e-05
3.70441e-05
4.43254e-05
5.05245e-05
5.96054e-05
6.93382e-05
7.97699e-05
9.02986e-05
9.95322e-05
0.000110095
0.000120655
0.000130814
0.000141206
0.000149706
SCALARS Solute_Concentration_Sr++ float 1
LOOKUP_TABLE default
5.07e-07
5.07e-07
5.07e-07
5.07e-07
5.07e-07
5.07e-07
5.07e-07
5.07e-07
5.07e-07
5.07e-07
5.07e-07
5.07e-07
5.07e-07
5.07e-07
5.07e-07
5.07e-07
5.07e-07
5.07e-07
5.07e-07
5.07e-07
5.07e-07
5.07e-07
5.07e-07
5.07e-07
5.07e-07
5.07e-07
5.07e-07
5.07e-07
5.07e-07
5.07e-07
5.07e-07
5.07e-07
5.07e-07
5.07e-07
5.07e-07
5.07e-07
5.07e-07
5.07e-07
5.07e-07
5.07e-07
5.07e-07
5.07e-07
5.07e-07
5.07e-07
5.07e-07
5.07e-07
5.07e-07
5.07e-07
5.07e-07
5.07e-07
5.07e-07
5.07e-07
5.07e-07
5.07e-07
5.07e-07
5.07e-07
5.07e-07
5.07e-07
5.07e-07
5.07e-07
SCALARS Reaction_rates_Moles_per_L_porusmedium_per_second_Albite float 1
LOOKUP_TABLE default
1.24993e-16
1.26242e-15
7.24827e-15
1.47226e-14
3.55173e-14
5.64539e-14
7.16344e-14
7.35283e-14
6.41013e-14
6.95899e-14
6.43266e-14
5.45646e-14
6.00298e-14
5.77319e-14
6.03845e-14
1.24993e-16
1.26242e-15
7.24827e-15
1.47226e-14
3.55173e-14
5.64539e-14
7.16344e-14
7.35283e-14
6.41013e-14
6.95899e-14
6.43266e-14
5.45646e-14
6.00298e-14
5.77319e-14
6.03845e-14
1.24993e-16
1.26242e-15
7.24827e-15
1.47226e-14
3.55173e-14
5.64539e-14
7.16344e-14
7.35283e-14
6.41013e-14
6.95899e-14
6.43266e-14
5.45646e-14
6.00298e-14
5.77319e-14
6.03845e-14
1.24993e-16
1.26242e-15
7.24827e-15
1.47226e-14
3.55173e-14
5.64539e-14
7.16344e-14
7.35283e-14
6.41013e-14
6.95899e-14
6.43266e-14
5.45646e-14
6.00298e-14
5.77319e-14
6.03845e-14
SCALARS Reaction_rates_Moles_per_L_porusmedium_per_second_Quartz float 1
LOOKUP_TABLE default
-3.74274e-14
-3.59755e-14
-3.58475e-14
-3.3978e-14
-3.84667e-14
-4.86591e-14
-4.28169e-14
-4.46085e-14
-4.45025e-14
-4.21593e-14
-4.33433e-14
-3.99805e-14
-4.09584e-14
-3.8104e-14
-4.27348e-14
-3.74274e-14
-3.59755e-14
-3.58475e-14
-3.3978e-14
-3.84667e-14
-4.86591e-14
-4.28169e-14
-4.46085e-14
-4.45025e-14
-4.21593e-14
-4.33433e-14
-3.99805e-14
-4.09584e-14
-3.8104e-14
-4.27348e-14
-3.74274e-14
-3.59755e-14
-3.58475e-14
-3.3978e-14
-3.84667e-14
-4.86591e-14
-4.28169e-14
-4.46085e-14
-4.45025e-14
-4.21593e-14
-4.33433e-14
-3.99805e-14
-4.09584e-14
-3.8104e-14
-4.27348e-14
-3.74274e-14
-3.59755e-14
-3.58475e-14
-3.3978e-14
-3.84667e-14
-4.86591e-14
-4.28169e-14
-4.46085e-14
-4.45025e-14
-4.21593e-14
-4.33433e-14
-3.99805e-14
-4.09584e-14
-3.8104e-14
-4.27348e-14
SCALARS Mineral_mass_fraction_Albite float 1
LOOKUP_TABLE default
0.511401
0.496781
0.499304
0.492887
0.503757
0.500858
0.500473
0.500617
0.500612
0.50109
0.500214
0.49999
0.50133
0.500741
0.50096
0.516967
0.483139
0.504146
0.505197
0.493512
0.500766
0.501135
0.501476
0.499853
0.501206
0.500595
0.500633
0.501364
0.500149
0.500912
0.497968
0.513381
0.498281
0.496421
0.496753
0.501098
0.500638
0.500633
0.501166
0.500537
0.501031
0.501005
0.499951
0.501118
0.500456
0.527899
0.494465
0.488169
0.480199
0.509215
0.500836
0.500782
0.500448
0.500405
0.501503
0.500491
0.501156
0.50028
0.501253
0.500578
SCALARS Mineral_mass_fraction_Quartz float 1
LOOKUP_TABLE default
0.488599
0.503219
0.500696
0.507113
0.496243
0.499142
0.499527
0.499383
0.499388
0.49891
0.499786
0.50001
0.49867
0.499259
0.49904
0.483033
0.516861
0.495854
0.494803
0.506488
0.499234
0.498865
0.498524
0.500147
0.498794
0.499405
0.499367
0.498636
0.499851
0.499088
0.502032
0.486619
0.501719
0.503579
0.503247
0.498902
0.499362
0.499367
0.498834
0.499463
0.498969
0.498995
0.500049
0.498882
0.499544
0.472101
0.505535
0.511831
0.519801
0.490785
0.499164
0.499218
0.499552
0.499595
0.498497
0.499509
0.498844
0.49972
0.498747
0.499422
SCALARS Mineral_depletion_ratio_Albite float 1
LOOKUP_TABLE default
563.787
586.572
565.747
596.497
578.107
509.633
467.646
507.637
486
506.7
489.517
497.57
493.316
478.775
465.486
775.405
788.875
816.214
767.66
845.198
474.499
472.332
475.103
474.849
461.138
486.13
478.704
477.6
501.355
490.147
560.039
558.82
581.198
566.133
571.318
503.733
512.408
469.279
469.031
500.844
505.937
486.38
535.846
524.528
475.737
772.957
706.167
681.446
683.692
739.305
469.967
480.041
524.409
485.504
463.752
486.819
446.626
487.628
486.229
486.769
SCALARS Mineral_depletion_ratio_Quartz float 1
LOOKUP_TABLE default
625.679
616.752
604.411
616.642
627.933
523.708
492.666
478.321
446.243
471.04
460.891
498.364
496.81
476.643
498.443
773.77
783.431
770.373
751.075
767.058
496.562
487.426
512.502
476.545
492.168
460.498
497.551
533.799
452.835
466.926
590.663
623.944
620.7
587.955
593.82
477.484
498.357
485.885
511.757
510.117
492.183
489.621
489.224
477.674
478.426
670.732
688.893
698.403
719.99
732.791
469.771
494.844
498.183
492.177
515.358
479.302
490.278
469.215
473.037
476.228
