# vtk DataFile Version 2.0
Unstructured Grid Ptrack_cells
ASCII

DATASET UNSTRUCTURED_GRID
POINTS 80 float
0 99.9996 0.0
0 99.8996 0.0
0 99.7996 0.0
0 99.6995 0.0
0 99.5995 0.0
0 99.4995 0.0
0 99.3495 0.0
0 99.1995 0.0
0 99.0495 0.0
0 98.8995 0.0
0 98.7496 0.0
0 98.5996 0.0
0 98.4496 0.0
0 98.2996 0.0
0 98.1496 0.0
0 97.9996 0.0
0.1 99.9996 0.0
0.1 99.8996 0.0
0.1 99.7996 0.0
0.1 99.6995 0.0
0.1 99.5995 0.0
0.1 99.4995 0.0
0.1 99.3495 0.0
0.1 99.1995 0.0
0.1 99.0495 0.0
0.1 98.8995 0.0
0.1 98.7496 0.0
0.1 98.5996 0.0
0.1 98.4496 0.0
0.1 98.2996 0.0
0.1 98.1496 0.0
0.1 97.9996 0.0
0.2 99.9996 0.0
0.2 99.8996 0.0
0.2 99.7996 0.0
0.2 99.6995 0.0
0.2 99.5995 0.0
0.2 99.4995 0.0
0.2 99.3495 0.0
0.2 99.1995 0.0
0.2 99.0495 0.0
0.2 98.8995 0.0
0.2 98.7496 0.0
0.2 98.5996 0.0
0.2 98.4496 0.0
0.2 98.2996 0.0
0.2 98.1496 0.0
0.2 97.9996 0.0
0.3 99.9996 0.0
0.3 99.8996 0.0
0.3 99.7996 0.0
0.3 99.6995 0.0
0.3 99.5995 0.0
0.3 99.4995 0.0
0.3 99.3495 0.0
0.3 99.1995 0.0
0.3 99.0495 0.0
0.3 98.8995 0.0
0.3 98.7496 0.0
0.3 98.5996 0.0
0.3 98.4496 0.0
0.3 98.2996 0.0
0.3 98.1496 0.0
0.3 97.9996 0.0
0.4 99.9996 0.0
0.4 99.8996 0.0
0.4 99.7996 0.0
0.4 99.6995 0.0
0.4 99.5995 0.0
0.4 99.4995 0.0
0.4 99.3495 0.0
0.4 99.1995 0.0
0.4 99.0495 0.0
0.4 98.8995 0.0
0.4 98.7496 0.0
0.4 98.5996 0.0
0.4 98.4496 0.0
0.4 98.2996 0.0
0.4 98.1496 0.0
0.4 97.9996 0.0

CELLS 60 300
4 0 16 17 1
4 1 17 18 2
4 2 18 19 3
4 3 19 20 4
4 4 20 21 5
4 5 21 22 6
4 6 22 23 7
4 7 23 24 8
4 8 24 25 9
4 9 25 26 10
4 10 26 27 11
4 11 27 28 12
4 12 28 29 13
4 13 29 30 14
4 14 30 31 15
4 16 32 33 17
4 17 33 34 18
4 18 34 35 19
4 19 35 36 20
4 20 36 37 21
4 21 37 38 22
4 22 38 39 23
4 23 39 40 24
4 24 40 41 25
4 25 41 42 26
4 26 42 43 27
4 27 43 44 28
4 28 44 45 29
4 29 45 46 30
4 30 46 47 31
4 32 48 49 33
4 33 49 50 34
4 34 50 51 35
4 35 51 52 36
4 36 52 53 37
4 37 53 54 38
4 38 54 55 39
4 39 55 56 40
4 40 56 57 41
4 41 57 58 42
4 42 58 59 43
4 43 59 60 44
4 44 60 61 45
4 45 61 62 46
4 46 62 63 47
4 48 64 65 49
4 49 65 66 50
4 50 66 67 51
4 51 67 68 52
4 52 68 69 53
4 53 69 70 54
4 54 70 71 55
4 55 71 72 56
4 56 72 73 57
4 57 73 74 58
4 58 74 75 59
4 59 75 76 60
4 60 76 77 61
4 61 77 78 62
4 62 78 79 63

CELL_TYPES 60
9
9
9
9
9
9
9
9
9
9
9
9
9
9
9
9
9
9
9
9
9
9
9
9
9
9
9
9
9
9
9
9
9
9
9
9
9
9
9
9
9
9
9
9
9
9
9
9
9
9
9
9
9
9
9
9
9
9
9
9

CELL_DATA 60
SCALARS SOIL_OR_PARENT int 1
LOOKUP_TABLE default
1
1
1
1
1
0
0
0
0
0
0
0
0
0
0
1
1
1
1
1
0
0
0
0
0
0
0
0
0
0
1
1
1
1
1
0
0
0
0
0
0
0
0
0
0
1
1
1
1
1
0
0
0
0
0
0
0
0
0
0
SCALARS CELL_NUM int 1
LOOKUP_TABLE default
0
1
2
3
4
5
6
7
8
9
10
11
12
13
14
15
16
17
18
19
20
21
22
23
24
25
26
27
28
29
30
31
32
33
34
35
36
37
38
39
40
41
42
43
44
45
46
47
48
49
50
51
52
53
54
55
56
57
58
59
SCALARS Mineral_volume_percents_Albite float 1
LOOKUP_TABLE default
67.3211
67.615
69.5969
68.4532
64.4985
76.1217
82.7356
76.0661
80.0309
75.9481
78.7072
78.0071
78.7113
81.0264
82.6113
62.6608
59.5871
64.8617
65.3606
63.2156
81.7957
81.976
81.2331
82.6747
83.4833
79.4679
81.3986
80.9806
77.6232
78.2152
68.1129
73.9652
65.4642
72.0614
64.5903
77.3848
75.4399
82.4847
83.0283
76.2065
76.0626
80.28
72.0446
73.8435
80.7998
61.7323
64.8544
66.6545
64.1369
67.9693
82.9233
80.214
73.6906
80.388
82.4951
79.7111
87.4501
79.4615
79.6406
79.0328
SCALARS Mineral_volume_percents_Quartz float 1
LOOKUP_TABLE default
54.3779
54.0726
58.8122
53.5904
51.6441
61.8016
69.4375
70.7824
76.6649
72.4537
73.7333
67.6332
67.8434
71.6578
65.3498
56.1213
55.8179
58.4304
55.2424
59.662
66.7967
69.5154
65.139
71.2583
68.2832
74.1321
68.0731
61.7911
76.3724
70.6096
56.7061
59.7276
54.7212
53.3229
55.4204
70.2511
68.0532
69.3083
65.4732
65.6415
67.9281
69.5192
69.1013
71.1557
69.1854
57.8889
55.4297
55.4106
63.6488
57.7148
71.1525
68.8069
67.0664
68.4284
65.0346
70.0869
69.2677
72.4978
72.5395
69.2483
SCALARS Mineral_specific_surface_area_m2perg_Albite float 1
LOOKUP_TABLE default
0.090566
0.090566
0.090566
0.090566
0.090566
0.090566
0.090566
0.090566
0.090566
0.090566
0.090566
0.090566
0.090566
0.090566
0.090566
0.090566
0.090566
0.090566
0.090566
0.090566
0.090566
0.090566
0.090566
0.090566
0.090566
0.090566
0.090566
0.090566
0.090566
0.090566
0.090566
0.090566
0.090566
0.090566
0.090566
0.090566
0.090566
0.090566
0.090566
0.090566
0.090566
0.090566
0.090566
0.090566
0.090566
0.090566
0.090566
0.090566
0.090566
0.090566
0.090566
0.090566
0.090566
0.090566
0.090566
0.090566
0.090566
0.090566
0.090566
0.090566
SCALARS Mineral_specific_surface_area_m2perg_Quartz float 1
LOOKUP_TABLE default
0.090566
0.090566
0.090566
0.090566
0.090566
0.090566
0.090566
0.090566
0.090566
0.090566
0.090566
0.090566
0.090566
0.090566
0.090566
0.090566
0.090566
0.090566
0.090566
0.090566
0.090566
0.090566
0.090566
0.090566
0.090566
0.090566
0.090566
0.090566
0.090566
0.090566
0.090566
0.090566
0.090566
0.090566
0.090566
0.090566
0.090566
0.090566
0.090566
0.090566
0.090566
0.090566
0.090566
0.090566
0.090566
0.090566
0.090566
0.090566
0.090566
0.090566
0.090566
0.090566
0.090566
0.090566
0.090566
0.090566
0.090566
0.090566
0.090566
0.090566
SCALARS Mineral_mass_kg_Albite float 1
LOOKUP_TABLE default
17.844
17.922
18.4473
18.1441
17.0959
30.2561
32.885
30.234
31.8099
30.1871
31.2838
31.0055
31.2854
32.2056
32.8356
16.6088
15.7941
17.1922
17.3244
16.7558
32.5114
32.583
32.2878
32.8608
33.1821
31.5861
32.3535
32.1874
30.8529
31.0882
18.0539
19.6051
17.3519
19.1005
17.1202
30.7582
29.9852
32.7852
33.0013
30.2898
30.2327
31.9089
28.6356
29.3506
32.1155
16.3627
17.1902
17.6674
17.0001
18.0159
32.9596
31.8827
29.2898
31.9519
32.7894
31.6828
34.7588
31.5836
31.6548
31.4132
SCALARS Mineral_mass_kg_Quartz float 1
LOOKUP_TABLE default
14.4133
14.3324
15.5887
14.2046
13.6887
24.5643
27.5994
28.1339
30.4721
28.7982
29.3068
26.8822
26.9658
28.4819
25.9746
14.8754
14.795
15.4875
14.6425
15.8139
26.5497
27.6303
25.8908
28.3231
27.1406
29.4653
27.0571
24.5601
30.3558
28.0652
15.0305
15.8313
14.5043
14.1337
14.6897
27.9228
27.0491
27.548
26.0237
26.0906
26.9994
27.6318
27.4657
28.2823
27.4992
15.344
14.6921
14.6871
16.8707
15.2978
28.281
27.3487
26.6569
27.1983
25.8493
27.8575
27.5319
28.8158
28.8323
27.5242
SCALARS Mineral_surface_area_m2_Albite float 1
LOOKUP_TABLE default
1616.06
1623.12
1670.7
1643.24
1548.31
2740.18
2978.26
2738.18
2880.9
2733.93
2833.25
2808.05
2833.4
2916.73
2973.79
1504.19
1430.41
1557.03
1569
1517.51
2944.43
2950.92
2924.17
2976.07
3005.18
2860.63
2930.13
2915.09
2794.23
2815.54
1635.07
1775.56
1571.49
1729.86
1550.51
2785.65
2715.64
2969.23
2988.8
2743.23
2738.05
2889.87
2593.41
2658.17
2908.58
1481.9
1556.85
1600.06
1539.63
1631.63
2985.02
2887.49
2652.66
2893.75
2969.6
2869.39
3147.97
2860.4
2866.85
2844.97
SCALARS Mineral_surface_area_m2_Quartz float 1
LOOKUP_TABLE default
1305.36
1298.03
1411.81
1286.46
1239.73
2224.69
2499.57
2547.98
2759.73
2608.14
2654.2
2434.61
2442.18
2579.49
2352.42
1347.21
1339.93
1402.64
1326.11
1432.21
2404.5
2502.37
2344.83
2565.11
2458.01
2668.56
2450.45
2224.31
2749.2
2541.76
1361.25
1433.78
1313.6
1280.03
1330.39
2528.85
2449.73
2494.91
2356.86
2362.92
2445.23
2502.5
2487.46
2561.42
2490.49
1389.64
1330.61
1330.15
1527.91
1385.46
2561.3
2476.86
2414.21
2463.24
2341.07
2522.94
2493.45
2609.73
2611.23
2492.76
SCALARS Solute_Concentration_Al+++ float 1
LOOKUP_TABLE default
6.13522e-06
8.5158e-06
1.03771e-05
1.14705e-05
1.16207e-05
1.10378e-05
9.28239e-06
7.55658e-06
6.36187e-06
4.69461e-06
3.68021e-06
3.22612e-06
2.59559e-06
2.25382e-06
1.72905e-06
6.13522e-06
8.5158e-06
1.03771e-05
1.14705e-05
1.16207e-05
1.10378e-05
9.28239e-06
7.55658e-06
6.36187e-06
4.69461e-06
3.68021e-06
3.22612e-06
2.59559e-06
2.25382e-06
1.72905e-06
6.13522e-06
8.5158e-06
1.03771e-05
1.14705e-05
1.16207e-05
1.10378e-05
9.28239e-06
7.55658e-06
6.36187e-06
4.69461e-06
3.68021e-06
3.22612e-06
2.59559e-06
2.25382e-06
1.72905e-06
6.13522e-06
8.5158e-06
1.03771e-05
1.14705e-05
1.16207e-05
1.10378e-05
9.28239e-06
7.55658e-06
6.36187e-06
4.69461e-06
3.68021e-06
3.22612e-06
2.59559e-06
2.25382e-06
1.72905e-06
SCALARS Solute_Concentration_CO2(aq) float 1
LOOKUP_TABLE default
0.00964234
0.0094933
0.00936644
0.00927138
0.00921234
0.00914699
0.00910561
0.00905555
0.0089879
0.00894332
0.00886696
0.00877443
0.00868895
0.00859295
0.00851923
0.00964234
0.0094933
0.00936644
0.00927138
0.00921234
0.00914699
0.00910561
0.00905555
0.0089879
0.00894332
0.00886696
0.00877443
0.00868895
0.00859295
0.00851923
0.00964234
0.0094933
0.00936644
0.00927138
0.00921234
0.00914699
0.00910561
0.00905555
0.0089879
0.00894332
0.00886696
0.00877443
0.00868895
0.00859295
0.00851923
0.00964234
0.0094933
0.00936644
0.00927138
0.00921234
0.00914699
0.00910561
0.00905555
0.0089879
0.00894332
0.00886696
0.00877443
0.00868895
0.00859295
0.00851923
SCALARS Solute_Concentration_Ca++ float 1
LOOKUP_TABLE default
9.0701e-05
9.07016e-05
9.07021e-05
9.07027e-05
9.07031e-05
9.07039e-05
9.07048e-05
9.07057e-05
9.07067e-05
9.07077e-05
9.07086e-05
9.07095e-05
9.07104e-05
9.07113e-05
9.07122e-05
9.0701e-05
9.07016e-05
9.07021e-05
9.07027e-05
9.07031e-05
9.07039e-05
9.07048e-05
9.07057e-05
9.07067e-05
9.07077e-05
9.07086e-05
9.07095e-05
9.07104e-05
9.07113e-05
9.07122e-05
9.0701e-05
9.07016e-05
9.07021e-05
9.07027e-05
9.07031e-05
9.07039e-05
9.07048e-05
9.07057e-05
9.07067e-05
9.07077e-05
9.07086e-05
9.07095e-05
9.07104e-05
9.07113e-05
9.07122e-05
9.0701e-05
9.07016e-05
9.07021e-05
9.07027e-05
9.07031e-05
9.07039e-05
9.07048e-05
9.07057e-05
9.07067e-05
9.07077e-05
9.07086e-05
9.07095e-05
9.07104e-05
9.07113e-05
9.07122e-05
SCALARS Solute_Concentration_Cl- float 1
LOOKUP_TABLE default
0.000465
0.000465
0.000465
0.000465
0.000465
0.000465
0.000465
0.000465
0.000465
0.000465
0.000465
0.000465
0.000465
0.000465
0.000465
0.000465
0.000465
0.000465
0.000465
0.000465
0.000465
0.000465
0.000465
0.000465
0.000465
0.000465
0.000465
0.000465
0.000465
0.000465
0.000465
0.000465
0.000465
0.000465
0.000465
0.000465
0.000465
0.000465
0.000465
0.000465
0.000465
0.000465
0.000465
0.000465
0.000465
0.000465
0.000465
0.000465
0.000465
0.000465
0.000465
0.000465
0.000465
0.000465
0.000465
0.000465
0.000465
0.000465
0.000465
0.000465
SCALARS Solute_Concentration_Fe++ float 1
LOOKUP_TABLE default
2.0998e-08
3.17274e-08
4.30936e-08
5.31417e-08
6.28811e-08
7.76673e-08
9.6105e-08
1.13267e-07
1.34249e-07
1.53977e-07
1.72772e-07
1.90613e-07
2.0914e-07
2.26572e-07
2.43091e-07
2.0998e-08
3.17274e-08
4.30936e-08
5.31417e-08
6.28811e-08
7.76673e-08
9.6105e-08
1.13267e-07
1.34249e-07
1.53977e-07
1.72772e-07
1.90613e-07
2.0914e-07
2.26572e-07
2.43091e-07
2.0998e-08
3.17274e-08
4.30936e-08
5.31417e-08
6.28811e-08
7.76673e-08
9.6105e-08
1.13267e-07
1.34249e-07
1.53977e-07
1.72772e-07
1.90613e-07
2.0914e-07
2.26572e-07
2.43091e-07
2.0998e-08
3.17274e-08
4.30936e-08
5.31417e-08
6.28811e-08
7.76673e-08
9.6105e-08
1.13267e-07
1.34249e-07
1.53977e-07
1.72772e-07
1.90613e-07
2.0914e-07
2.26572e-07
2.43091e-07
SCALARS Solute_Concentration_Fe+++ float 1
LOOKUP_TABLE default
8.35922e-09
1.2651e-08
1.71974e-08
2.12167e-08
2.51124e-08
3.10269e-08
3.8402e-08
4.52668e-08
5.36594e-08
6.15509e-08
6.90689e-08
7.62052e-08
8.36161e-08
9.05887e-08
9.71965e-08
8.35922e-09
1.2651e-08
1.71974e-08
2.12167e-08
2.51124e-08
3.10269e-08
3.8402e-08
4.52668e-08
5.36594e-08
6.15509e-08
6.90689e-08
7.62052e-08
8.36161e-08
9.05887e-08
9.71965e-08
8.35922e-09
1.2651e-08
1.71974e-08
2.12167e-08
2.51124e-08
3.10269e-08
3.8402e-08
4.52668e-08
5.36594e-08
6.15509e-08
6.90689e-08
7.62052e-08
8.36161e-08
9.05887e-08
9.71965e-08
8.35922e-09
1.2651e-08
1.71974e-08
2.12167e-08
2.51124e-08
3.10269e-08
3.8402e-08
4.52668e-08
5.36594e-08
6.15509e-08
6.90689e-08
7.62052e-08
8.36161e-08
9.05887e-08
9.71965e-08
SCALARS Solute_Concentration_H+ float 1
LOOKUP_TABLE default
-4.2519e-05
-5.2825e-05
-6.1633e-05
-6.80701e-05
-7.1606e-05
-7.47814e-05
-7.53747e-05
-7.63832e-05
-7.87919e-05
-7.93639e-05
-8.22268e-05
-8.6483e-05
-9.01021e-05
-9.45525e-05
-9.75938e-05
-4.2519e-05
-5.2825e-05
-6.1633e-05
-6.80701e-05
-7.1606e-05
-7.47814e-05
-7.53747e-05
-7.63832e-05
-7.87919e-05
-7.93639e-05
-8.22268e-05
-8.6483e-05
-9.01021e-05
-9.45525e-05
-9.75938e-05
-4.2519e-05
-5.2825e-05
-6.1633e-05
-6.80701e-05
-7.1606e-05
-7.47814e-05
-7.53747e-05
-7.63832e-05
-7.87919e-05
-7.93639e-05
-8.22268e-05
-8.6483e-05
-9.01021e-05
-9.45525e-05
-9.75938e-05
-4.2519e-05
-5.2825e-05
-6.1633e-05
-6.80701e-05
-7.1606e-05
-7.47814e-05
-7.53747e-05
-7.63832e-05
-7.87919e-05
-7.93639e-05
-8.22268e-05
-8.6483e-05
-9.01021e-05
-9.45525e-05
-9.75938e-05
SCALARS Solute_Concentration_K+ float 1
LOOKUP_TABLE default
1.89683e-05
2.0249e-05
2.15253e-05
2.27914e-05
2.41017e-05
2.62209e-05
2.84953e-05
3.09354e-05
3.33257e-05
3.55583e-05
3.78959e-05
4.00428e-05
4.20981e-05
4.40162e-05
4.58067e-05
1.89683e-05
2.0249e-05
2.15253e-05
2.27914e-05
2.41017e-05
2.62209e-05
2.84953e-05
3.09354e-05
3.33257e-05
3.55583e-05
3.78959e-05
4.00428e-05
4.20981e-05
4.40162e-05
4.58067e-05
1.89683e-05
2.0249e-05
2.15253e-05
2.27914e-05
2.41017e-05
2.62209e-05
2.84953e-05
3.09354e-05
3.33257e-05
3.55583e-05
3.78959e-05
4.00428e-05
4.20981e-05
4.40162e-05
4.58067e-05
1.89683e-05
2.0249e-05
2.15253e-05
2.27914e-05
2.41017e-05
2.62209e-05
2.84953e-05
3.09354e-05
3.33257e-05
3.55583e-05
3.78959e-05
4.00428e-05
4.20981e-05
4.40162e-05
4.58067e-05
SCALARS Solute_Concentration_Mg++ float 1
LOOKUP_TABLE default
6.88481e-05
6.88727e-05
6.88989e-05
6.8922e-05
6.89444e-05
6.89784e-05
6.90208e-05
6.90603e-05
6.91085e-05
6.91539e-05
6.91972e-05
6.92382e-05
6.92808e-05
6.93209e-05
6.93589e-05
6.88481e-05
6.88727e-05
6.88989e-05
6.8922e-05
6.89444e-05
6.89784e-05
6.90208e-05
6.90603e-05
6.91085e-05
6.91539e-05
6.91972e-05
6.92382e-05
6.92808e-05
6.93209e-05
6.93589e-05
6.88481e-05
6.88727e-05
6.88989e-05
6.8922e-05
6.89444e-05
6.89784e-05
6.90208e-05
6.90603e-05
6.91085e-05
6.91539e-05
6.91972e-05
6.92382e-05
6.92808e-05
6.93209e-05
6.93589e-05
6.88481e-05
6.88727e-05
6.88989e-05
6.8922e-05
6.89444e-05
6.89784e-05
6.90208e-05
6.90603e-05
6.91085e-05
6.91539e-05
6.91972e-05
6.92382e-05
6.92808e-05
6.93209e-05
6.93589e-05
SCALARS Solute_Concentration_NO3- float 1
LOOKUP_TABLE default
0.0001
0.0001
0.0001
0.0001
0.0001
0.0001
0.0001
0.0001
0.0001
0.0001
0.0001
0.0001
0.0001
0.0001
0.0001
0.0001
0.0001
0.0001
0.0001
0.0001
0.0001
0.0001
0.0001
0.0001
0.0001
0.0001
0.0001
0.0001
0.0001
0.0001
0.0001
0.0001
0.0001
0.0001
0.0001
0.0001
0.0001
0.0001
0.0001
0.0001
0.0001
0.0001
0.0001
0.0001
0.0001
0.0001
0.0001
0.0001
0.0001
0.0001
0.0001
0.0001
0.0001
0.0001
0.0001
0.0001
0.0001
0.0001
0.0001
0.0001
SCALARS Solute_Concentration_Na+ float 1
LOOKUP_TABLE default
0.000428932
0.00043073
0.000432588
0.0004344
0.000436098
0.000438786
0.000442225
0.000445836
0.000449272
0.000452458
0.000455878
0.000459208
0.000462517
0.000465937
0.000468632
0.000428932
0.00043073
0.000432588
0.0004344
0.000436098
0.000438786
0.000442225
0.000445836
0.000449272
0.000452458
0.000455878
0.000459208
0.000462517
0.000465937
0.000468632
0.000428932
0.00043073
0.000432588
0.0004344
0.000436098
0.000438786
0.000442225
0.000445836
0.000449272
0.000452458
0.000455878
0.000459208
0.000462517
0.000465937
0.000468632
0.000428932
0.00043073
0.000432588
0.0004344
0.000436098
0.000438786
0.000442225
0.000445836
0.000449272
0.000452458
0.000455878
0.000459208
0.000462517
0.000465937
0.000468632
SCALARS Solute_Concentration_SO4-- float 1
LOOKUP_TABLE default
0.000161
0.000161
0.000161
0.000161
0.000161
0.000161
0.000161
0.000161
0.000161
0.000161
0.000161
0.000161
0.000161
0.000161
0.000161
0.000161
0.000161
0.000161
0.000161
0.000161
0.000161
0.000161
0.000161
0.000161
0.000161
0.000161
0.000161
0.000161
0.000161
0.000161
0.000161
0.000161
0.000161
0.000161
0.000161
0.000161
0.000161
0.000161
0.000161
0.000161
0.000161
0.000161
0.000161
0.000161
0.000161
0.000161
0.000161
0.000161
0.000161
0.000161
0.000161
0.000161
0.000161
0.000161
0.000161
0.000161
0.000161
0.000161
0.000161
0.000161
SCALARS Solute_Concentration_SiO2(aq) float 1
LOOKUP_TABLE default
2.03017e-05
2.88766e-05
3.70441e-05
4.43254e-05
5.05245e-05
5.96054e-05
6.93382e-05
7.97699e-05
9.02986e-05
9.95322e-05
0.000110095
0.000120655
0.000130814
0.000141206
0.000149706
2.03017e-05
2.88766e-05
3.70441e-05
4.43254e-05
5.05245e-05
5.96054e-05
6.93382e-05
7.97699e-05
9.02986e-05
9.95322e-05
0.000110095
0.000120655
0.000130814
0.000141206
0.000149706
2.03017e-05
2.88766e-05
3.70441e-05
4.43254e-05
5.05245e-05
5.96054e-05
6.93382e-05
7.97699e-05
9.02986e-05
9.95322e-05
0.000110095
0.000120655
0.000130814
0.000141206
0.000149706
2.03017e-05
2.88766e-05
3.70441e-05
4.43254e-05
5.05245e-05
5.96054e-05
6.93382e-05
7.97699e-05
9.02986e-05
9.95322e-05
0.000110095
0.000120655
0.000130814
0.000141206
0.000149706
SCALARS Solute_Concentration_Sr++ float 1
LOOKUP_TABLE default
5.07e-07
5.07e-07
5.07e-07
5.07e-07
5.07e-07
5.07e-07
5.07e-07
5.07e-07
5.07e-07
5.07e-07
5.07e-07
5.07e-07
5.07e-07
5.07e-07
5.07e-07
5.07e-07
5.07e-07
5.07e-07
5.07e-07
5.07e-07
5.07e-07
5.07e-07
5.07e-07
5.07e-07
5.07e-07
5.07e-07
5.07e-07
5.07e-07
5.07e-07
5.07e-07
5.07e-07
5.07e-07
5.07e-07
5.07e-07
5.07e-07
5.07e-07
5.07e-07
5.07e-07
5.07e-07
5.07e-07
5.07e-07
5.07e-07
5.07e-07
5.07e-07
5.07e-07
5.07e-07
5.07e-07
5.07e-07
5.07e-07
5.07e-07
5.07e-07
5.07e-07
5.07e-07
5.07e-07
5.07e-07
5.07e-07
5.07e-07
5.07e-07
5.07e-07
5.07e-07
SCALARS Reaction_rates_Moles_per_L_porusmedium_per_second_Albite float 1
LOOKUP_TABLE default
1.24993e-16
1.26242e-15
7.24827e-15
1.47226e-14
3.55173e-14
5.64539e-14
7.16344e-14
7.35283e-14
6.41013e-14
6.95899e-14
6.43266e-14
5.45646e-14
6.00298e-14
5.77319e-14
6.03845e-14
1.24993e-16
1.26242e-15
7.24827e-15
1.47226e-14
3.55173e-14
5.64539e-14
7.16344e-14
7.35283e-14
6.41013e-14
6.95899e-14
6.43266e-14
5.45646e-14
6.00298e-14
5.77319e-14
6.03845e-14
1.24993e-16
1.26242e-15
7.24827e-15
1.47226e-14
3.55173e-14
5.64539e-14
7.16344e-14
7.35283e-14
6.41013e-14
6.95899e-14
6.43266e-14
5.45646e-14
6.00298e-14
5.77319e-14
6.03845e-14
1.24993e-16
1.26242e-15
7.24827e-15
1.47226e-14
3.55173e-14
5.64539e-14
7.16344e-14
7.35283e-14
6.41013e-14
6.95899e-14
6.43266e-14
5.45646e-14
6.00298e-14
5.77319e-14
6.03845e-14
SCALARS Reaction_rates_Moles_per_L_porusmedium_per_second_Quartz float 1
LOOKUP_TABLE default
-3.74274e-14
-3.59755e-14
-3.58475e-14
-3.3978e-14
-3.84667e-14
-4.86591e-14
-4.28169e-14
-4.46085e-14
-4.45025e-14
-4.21593e-14
-4.33433e-14
-3.99805e-14
-4.09584e-14
-3.8104e-14
-4.27348e-14
-3.74274e-14
-3.59755e-14
-3.58475e-14
-3.3978e-14
-3.84667e-14
-4.86591e-14
-4.28169e-14
-4.46085e-14
-4.45025e-14
-4.21593e-14
-4.33433e-14
-3.99805e-14
-4.09584e-14
-3.8104e-14
-4.27348e-14
-3.74274e-14
-3.59755e-14
-3.58475e-14
-3.3978e-14
-3.84667e-14
-4.86591e-14
-4.28169e-14
-4.46085e-14
-4.45025e-14
-4.21593e-14
-4.33433e-14
-3.99805e-14
-4.09584e-14
-3.8104e-14
-4.27348e-14
-3.74274e-14
-3.59755e-14
-3.58475e-14
-3.3978e-14
-3.84667e-14
-4.86591e-14
-4.28169e-14
-4.46085e-14
-4.45025e-14
-4.21593e-14
-4.33433e-14
-3.99805e-14
-4.09584e-14
-3.8104e-14
-4.27348e-14
SCALARS Mineral_mass_fraction_Albite float 1
LOOKUP_TABLE default
0.576216
0.577226
0.559613
0.581048
0.577881
0.577252
0.562449
0.537281
0.529086
0.528689
0.53402
0.556188
0.557154
0.549616
0.582154
0.549719
0.536892
0.543595
0.561348
0.533096
0.573788
0.559823
0.576638
0.557248
0.568927
0.534997
0.565103
0.589719
0.521371
0.546953
0.567725
0.572678
0.56374
0.595024
0.558859
0.546
0.544604
0.563551
0.581332
0.556655
0.54783
0.555904
0.52964
0.528018
0.560848
0.537451
0.560117
0.56487
0.518157
0.560619
0.559906
0.557131
0.54407
0.561261
0.579173
0.551142
0.578268
0.541407
0.541926
0.554995
SCALARS Mineral_mass_fraction_Quartz float 1
LOOKUP_TABLE default
0.423784
0.422774
0.440387
0.418952
0.422119
0.422748
0.437551
0.462719
0.470914
0.471311
0.46598
0.443812
0.442846
0.450384
0.417846
0.450281
0.463108
0.456405
0.438652
0.466904
0.426212
0.440177
0.423362
0.442752
0.431073
0.465003
0.434897
0.410281
0.478629
0.453047
0.432275
0.427322
0.43626
0.404976
0.441141
0.454
0.455396
0.436449
0.418668
0.443345
0.45217
0.444096
0.47036
0.471982
0.439152
0.462549
0.439883
0.43513
0.481843
0.439381
0.440094
0.442869
0.45593
0.438739
0.420827
0.448858
0.421732
0.458593
0.458074
0.445005
SCALARS Mineral_depletion_ratio_Albite float 1
LOOKUP_TABLE default
2.82002
2.81116
2.78768
2.80383
2.76379
2.77237
2.75249
2.73165
2.79235
2.68658
2.71394
2.77756
2.74911
2.78558
2.7104
2.80534
2.79599
2.7736
2.79263
2.75248
2.78819
2.75008
2.74842
2.79886
2.71299
2.71681
2.78627
2.75608
2.77622
2.69525
2.82127
2.82026
2.78529
2.80843
2.76735
2.77619
2.72965
2.7518
2.79864
2.6879
2.70435
2.78402
2.72698
2.76493
2.70203
2.81155
2.80438
2.7781
2.79629
2.76296
2.79077
2.74478
2.7241
2.79232
2.7105
2.71726
2.80113
2.75118
2.7819
2.69544
SCALARS Mineral_depletion_ratio_Quartz float 1
LOOKUP_TABLE default
2.00254
2.01788
2.05261
2.04079
1.98191
1.87227
2.05737
2.03178
2.10667
2.07414
2.06796
2.02371
2.0169
2.07906
1.87123
2.04468
2.05297
2.07817
2.06283
2.0448
1.9404
2.06115
1.96306
2.04972
2.02604
2.07295
2.02664
1.9371
2.12975
1.93964
2.03756
2.06751
2.04731
2.04612
2.00852
1.98572
2.04124
2.01586
1.98007
1.99342
2.00089
2.04595
2.03191
2.07361
1.9247
2.05871
2.05804
2.06784
2.11387
2.04621
1.99715
2.05004
1.98934
2.01456
1.98646
2.0274
2.04305
2.07023
2.08859
1.92333
