# vtk DataFile Version 2.0
Unstructured Grid Ptrack_cells
ASCII

DATASET UNSTRUCTURED_GRID
POINTS 80 float
0 99.9986 0.0
0 99.8986 0.0
0 99.7985 0.0
0 99.6984 0.0
0 99.5983 0.0
0 99.4983 0.0
0 99.3483 0.0
0 99.1983 0.0
0 99.0484 0.0
0 98.8984 0.0
0 98.7484 0.0
0 98.5985 0.0
0 98.4485 0.0
0 98.2986 0.0
0 98.1486 0.0
0 97.9986 0.0
0.1 99.9986 0.0
0.1 99.8986 0.0
0.1 99.7985 0.0
0.1 99.6984 0.0
0.1 99.5983 0.0
0.1 99.4983 0.0
0.1 99.3483 0.0
0.1 99.1983 0.0
0.1 99.0484 0.0
0.1 98.8984 0.0
0.1 98.7484 0.0
0.1 98.5985 0.0
0.1 98.4485 0.0
0.1 98.2986 0.0
0.1 98.1486 0.0
0.1 97.9986 0.0
0.2 99.9986 0.0
0.2 99.8986 0.0
0.2 99.7985 0.0
0.2 99.6984 0.0
0.2 99.5983 0.0
0.2 99.4983 0.0
0.2 99.3483 0.0
0.2 99.1983 0.0
0.2 99.0484 0.0
0.2 98.8984 0.0
0.2 98.7484 0.0
0.2 98.5985 0.0
0.2 98.4485 0.0
0.2 98.2986 0.0
0.2 98.1486 0.0
0.2 97.9986 0.0
0.3 99.9986 0.0
0.3 99.8986 0.0
0.3 99.7985 0.0
0.3 99.6984 0.0
0.3 99.5983 0.0
0.3 99.4983 0.0
0.3 99.3483 0.0
0.3 99.1983 0.0
0.3 99.0484 0.0
0.3 98.8984 0.0
0.3 98.7484 0.0
0.3 98.5985 0.0
0.3 98.4485 0.0
0.3 98.2986 0.0
0.3 98.1486 0.0
0.3 97.9986 0.0
0.4 99.9986 0.0
0.4 99.8986 0.0
0.4 99.7985 0.0
0.4 99.6984 0.0
0.4 99.5983 0.0
0.4 99.4983 0.0
0.4 99.3483 0.0
0.4 99.1983 0.0
0.4 99.0484 0.0
0.4 98.8984 0.0
0.4 98.7484 0.0
0.4 98.5985 0.0
0.4 98.4485 0.0
0.4 98.2986 0.0
0.4 98.1486 0.0
0.4 97.9986 0.0

CELLS 60 300
4 0 16 17 1
4 1 17 18 2
4 2 18 19 3
4 3 19 20 4
4 4 20 21 5
4 5 21 22 6
4 6 22 23 7
4 7 23 24 8
4 8 24 25 9
4 9 25 26 10
4 10 26 27 11
4 11 27 28 12
4 12 28 29 13
4 13 29 30 14
4 14 30 31 15
4 16 32 33 17
4 17 33 34 18
4 18 34 35 19
4 19 35 36 20
4 20 36 37 21
4 21 37 38 22
4 22 38 39 23
4 23 39 40 24
4 24 40 41 25
4 25 41 42 26
4 26 42 43 27
4 27 43 44 28
4 28 44 45 29
4 29 45 46 30
4 30 46 47 31
4 32 48 49 33
4 33 49 50 34
4 34 50 51 35
4 35 51 52 36
4 36 52 53 37
4 37 53 54 38
4 38 54 55 39
4 39 55 56 40
4 40 56 57 41
4 41 57 58 42
4 42 58 59 43
4 43 59 60 44
4 44 60 61 45
4 45 61 62 46
4 46 62 63 47
4 48 64 65 49
4 49 65 66 50
4 50 66 67 51
4 51 67 68 52
4 52 68 69 53
4 53 69 70 54
4 54 70 71 55
4 55 71 72 56
4 56 72 73 57
4 57 73 74 58
4 58 74 75 59
4 59 75 76 60
4 60 76 77 61
4 61 77 78 62
4 62 78 79 63

CELL_TYPES 60
9
9
9
9
9
9
9
9
9
9
9
9
9
9
9
9
9
9
9
9
9
9
9
9
9
9
9
9
9
9
9
9
9
9
9
9
9
9
9
9
9
9
9
9
9
9
9
9
9
9
9
9
9
9
9
9
9
9
9
9

CELL_DATA 60
SCALARS SOIL_OR_PARENT int 1
LOOKUP_TABLE default
1
1
1
1
1
0
0
0
0
0
0
0
0
0
0
1
1
1
1
1
0
0
0
0
0
0
0
0
0
0
1
1
1
1
1
0
0
0
0
0
0
0
0
0
0
1
1
1
1
1
0
0
0
0
0
0
0
0
0
0
SCALARS CELL_NUM int 1
LOOKUP_TABLE default
0
1
2
3
4
5
6
7
8
9
10
11
12
13
14
15
16
17
18
19
20
21
22
23
24
25
26
27
28
29
30
31
32
33
34
35
36
37
38
39
40
41
42
43
44
45
46
47
48
49
50
51
52
53
54
55
56
57
58
59
SCALARS Mineral_volume_percents_Albite float 1
LOOKUP_TABLE default
30386.3
31488.8
28805.2
29348.2
30786.8
30279.3
30225.3
30325.1
30190.6
30213
30209
30242.7
30239.7
30293
30157.1
34697
37279.1
38864
35280.2
34777.8
30203.7
30275.1
30229.2
30275.1
30144
30252.4
30216.5
30307.1
30284.1
30126.3
28158.6
31514.2
31618.6
30799.8
29000.6
30176.8
30259.6
30292.1
30196.2
30329
30149.6
30336.5
30108
30350.4
30090.4
33597.5
32298.1
33489.7
35525
35986.5
30220
30249.1
30142.9
30257.1
30381.5
30095.1
30244.3
30345.6
30166.4
30187.1
SCALARS Mineral_volume_percents_Quartz float 1
LOOKUP_TABLE default
31320.5
31138.8
29820.2
26639.1
31744
30214.8
30125.9
30199.1
30237.1
30119.7
30202.9
30155.8
30137.4
30308.4
29983.4
39459
36562.9
32364.9
35123
36880
30174.9
30242.3
30045.6
30221.6
30194.1
30124.2
30256.1
30093.4
30159.6
30120
28769.9
28621.2
31587.4
29818.6
32068.5
30140.6
30185.6
30190.5
30147.5
30147.7
30153.4
30172.7
30231.4
30268.6
29982.1
31332.8
31433.8
32893.1
34807.1
40123.4
30097.2
30185.2
30178.5
30138.2
30172.3
30218
30209
30192
30057.8
30115.2
SCALARS Mineral_specific_surface_area_m2perg_Albite float 1
LOOKUP_TABLE default
0.090566
0.090566
0.090566
0.090566
0.090566
0.090566
0.090566
0.090566
0.090566
0.090566
0.090566
0.090566
0.090566
0.090566
0.090566
0.090566
0.090566
0.090566
0.090566
0.090566
0.090566
0.090566
0.090566
0.090566
0.090566
0.090566
0.090566
0.090566
0.090566
0.090566
0.090566
0.090566
0.090566
0.090566
0.090566
0.090566
0.090566
0.090566
0.090566
0.090566
0.090566
0.090566
0.090566
0.090566
0.090566
0.090566
0.090566
0.090566
0.090566
0.090566
0.090566
0.090566
0.090566
0.090566
0.090566
0.090566
0.090566
0.090566
0.090566
0.090566
SCALARS Mineral_specific_surface_area_m2perg_Quartz float 1
LOOKUP_TABLE default
0.090566
0.090566
0.090566
0.090566
0.090566
0.090566
0.090566
0.090566
0.090566
0.090566
0.090566
0.090566
0.090566
0.090566
0.090566
0.090566
0.090566
0.090566
0.090566
0.090566
0.090566
0.090566
0.090566
0.090566
0.090566
0.090566
0.090566
0.090566
0.090566
0.090566
0.090566
0.090566
0.090566
0.090566
0.090566
0.090566
0.090566
0.090566
0.090566
0.090566
0.090566
0.090566
0.090566
0.090566
0.090566
0.090566
0.090566
0.090566
0.090566
0.090566
0.090566
0.090566
0.090566
0.090566
0.090566
0.090566
0.090566
0.090566
0.090566
0.090566
SCALARS Mineral_mass_kg_Albite float 1
LOOKUP_TABLE default
8058.63
8351.04
7639.31
7783.32
8164.85
12032.9
12011.4
12051.1
11997.6
12006.6
12005
12018.4
12017.2
12038.4
11984.3
9201.84
9886.63
10307
9356.53
9223.29
12002.9
12031.2
12013
12031.2
11979.1
12022.2
12008
12043.9
12034.8
11972.1
7467.82
8357.75
8385.46
8168.28
7691.13
11992.2
12025.1
12038
11999.9
12052.6
11981.4
12055.6
11964.8
12061.2
11957.8
8910.25
8565.65
8881.67
9421.45
9543.84
12009.3
12020.9
11978.7
12024.1
12073.5
11959.7
12019
12059.2
11988.1
11996.3
SCALARS Mineral_mass_kg_Quartz float 1
LOOKUP_TABLE default
8306.4
8258.21
7908.5
7064.86
8418.69
12007.3
11971.9
12001
12016.1
11969.5
12002.5
11983.8
11976.5
12044.5
11915.3
10464.8
9696.71
8583.36
9314.84
9780.81
11991.4
12018.2
11940
12010
11999
11971.3
12023.7
11959
11985.3
11969.6
7629.97
7590.52
8377.17
7908.08
8504.75
11977.8
11995.7
11997.6
11980.5
11980.6
11982.9
11990.5
12013.9
12028.7
11914.8
8309.66
8336.43
8723.44
9231.04
10641
11960.5
11995.5
11992.8
11976.8
11990.4
12008.6
12005
11998.2
11944.9
11967.7
SCALARS Mineral_surface_area_m2_Albite float 1
LOOKUP_TABLE default
729838
756320
691862
704905
739458
1.08977e+06
1.08783e+06
1.09142e+06
1.08658e+06
1.08739e+06
1.08724e+06
1.08846e+06
1.08835e+06
1.09027e+06
1.08537e+06
833375
895393
933462
847384
835317
1.08705e+06
1.08962e+06
1.08797e+06
1.08962e+06
1.0849e+06
1.0888e+06
1.08751e+06
1.09077e+06
1.08995e+06
1.08426e+06
676331
756929
759438
739769
696555
1.08608e+06
1.08906e+06
1.09023e+06
1.08678e+06
1.09156e+06
1.08511e+06
1.09183e+06
1.08361e+06
1.09233e+06
1.08297e+06
806966
775757
804377
853263
864348
1.08764e+06
1.08869e+06
1.08486e+06
1.08897e+06
1.09345e+06
1.08314e+06
1.08851e+06
1.09216e+06
1.08571e+06
1.08645e+06
SCALARS Mineral_surface_area_m2_Quartz float 1
LOOKUP_TABLE default
752277
747914
716242
639836
762448
1.08745e+06
1.08425e+06
1.08688e+06
1.08825e+06
1.08403e+06
1.08702e+06
1.08533e+06
1.08466e+06
1.09082e+06
1.07912e+06
947753
878193
777361
843608
885809
1.08601e+06
1.08844e+06
1.08136e+06
1.08769e+06
1.08671e+06
1.08419e+06
1.08894e+06
1.08308e+06
1.08546e+06
1.08404e+06
691016
687443
758687
716204
770242
1.08478e+06
1.0864e+06
1.08658e+06
1.08503e+06
1.08504e+06
1.08524e+06
1.08593e+06
1.08805e+06
1.08939e+06
1.07907e+06
752573
754998
790047
836019
963711
1.08322e+06
1.08639e+06
1.08614e+06
1.08469e+06
1.08592e+06
1.08757e+06
1.08724e+06
1.08663e+06
1.0818e+06
1.08387e+06
SCALARS Solute_Concentration_Al+++ float 1
LOOKUP_TABLE default
6.13522e-06
8.5158e-06
1.03771e-05
1.14705e-05
1.16207e-05
1.10378e-05
9.28239e-06
7.55658e-06
6.36187e-06
4.69461e-06
3.68021e-06
3.22612e-06
2.59559e-06
2.25382e-06
1.72905e-06
6.13522e-06
8.5158e-06
1.03771e-05
1.14705e-05
1.16207e-05
1.10378e-05
9.28239e-06
7.55658e-06
6.36187e-06
4.69461e-06
3.68021e-06
3.22612e-06
2.59559e-06
2.25382e-06
1.72905e-06
6.13522e-06
8.5158e-06
1.03771e-05
1.14705e-05
1.16207e-05
1.10378e-05
9.28239e-06
7.55658e-06
6.36187e-06
4.69461e-06
3.68021e-06
3.22612e-06
2.59559e-06
2.25382e-06
1.72905e-06
6.13522e-06
8.5158e-06
1.03771e-05
1.14705e-05
1.16207e-05
1.10378e-05
9.28239e-06
7.55658e-06
6.36187e-06
4.69461e-06
3.68021e-06
3.22612e-06
2.59559e-06
2.25382e-06
1.72905e-06
SCALARS Solute_Concentration_CO2(aq) float 1
LOOKUP_TABLE default
0.00964234
0.0094933
0.00936644
0.00927138
0.00921234
0.00914699
0.00910561
0.00905555
0.0089879
0.00894332
0.00886696
0.00877443
0.00868895
0.00859295
0.00851923
0.00964234
0.0094933
0.00936644
0.00927138
0.00921234
0.00914699
0.00910561
0.00905555
0.0089879
0.00894332
0.00886696
0.00877443
0.00868895
0.00859295
0.00851923
0.00964234
0.0094933
0.00936644
0.00927138
0.00921234
0.00914699
0.00910561
0.00905555
0.0089879
0.00894332
0.00886696
0.00877443
0.00868895
0.00859295
0.00851923
0.00964234
0.0094933
0.00936644
0.00927138
0.00921234
0.00914699
0.00910561
0.00905555
0.0089879
0.00894332
0.00886696
0.00877443
0.00868895
0.00859295
0.00851923
SCALARS Solute_Concentration_Ca++ float 1
LOOKUP_TABLE default
9.0701e-05
9.07016e-05
9.07021e-05
9.07027e-05
9.07031e-05
9.07039e-05
9.07048e-05
9.07057e-05
9.07067e-05
9.07077e-05
9.07086e-05
9.07095e-05
9.07104e-05
9.07113e-05
9.07122e-05
9.0701e-05
9.07016e-05
9.07021e-05
9.07027e-05
9.07031e-05
9.07039e-05
9.07048e-05
9.07057e-05
9.07067e-05
9.07077e-05
9.07086e-05
9.07095e-05
9.07104e-05
9.07113e-05
9.07122e-05
9.0701e-05
9.07016e-05
9.07021e-05
9.07027e-05
9.07031e-05
9.07039e-05
9.07048e-05
9.07057e-05
9.07067e-05
9.07077e-05
9.07086e-05
9.07095e-05
9.07104e-05
9.07113e-05
9.07122e-05
9.0701e-05
9.07016e-05
9.07021e-05
9.07027e-05
9.07031e-05
9.07039e-05
9.07048e-05
9.07057e-05
9.07067e-05
9.07077e-05
9.07086e-05
9.07095e-05
9.07104e-05
9.07113e-05
9.07122e-05
SCALARS Solute_Concentration_Cl- float 1
LOOKUP_TABLE default
0.000465
0.000465
0.000465
0.000465
0.000465
0.000465
0.000465
0.000465
0.000465
0.000465
0.000465
0.000465
0.000465
0.000465
0.000465
0.000465
0.000465
0.000465
0.000465
0.000465
0.000465
0.000465
0.000465
0.000465
0.000465
0.000465
0.000465
0.000465
0.000465
0.000465
0.000465
0.000465
0.000465
0.000465
0.000465
0.000465
0.000465
0.000465
0.000465
0.000465
0.000465
0.000465
0.000465
0.000465
0.000465
0.000465
0.000465
0.000465
0.000465
0.000465
0.000465
0.000465
0.000465
0.000465
0.000465
0.000465
0.000465
0.000465
0.000465
0.000465
SCALARS Solute_Concentration_Fe++ float 1
LOOKUP_TABLE default
2.0998e-08
3.17274e-08
4.30936e-08
5.31417e-08
6.28811e-08
7.76673e-08
9.6105e-08
1.13267e-07
1.34249e-07
1.53977e-07
1.72772e-07
1.90613e-07
2.0914e-07
2.26572e-07
2.43091e-07
2.0998e-08
3.17274e-08
4.30936e-08
5.31417e-08
6.28811e-08
7.76673e-08
9.6105e-08
1.13267e-07
1.34249e-07
1.53977e-07
1.72772e-07
1.90613e-07
2.0914e-07
2.26572e-07
2.43091e-07
2.0998e-08
3.17274e-08
4.30936e-08
5.31417e-08
6.28811e-08
7.76673e-08
9.6105e-08
1.13267e-07
1.34249e-07
1.53977e-07
1.72772e-07
1.90613e-07
2.0914e-07
2.26572e-07
2.43091e-07
2.0998e-08
3.17274e-08
4.30936e-08
5.31417e-08
6.28811e-08
7.76673e-08
9.6105e-08
1.13267e-07
1.34249e-07
1.53977e-07
1.72772e-07
1.90613e-07
2.0914e-07
2.26572e-07
2.43091e-07
SCALARS Solute_Concentration_Fe+++ float 1
LOOKUP_TABLE default
8.35922e-09
1.2651e-08
1.71974e-08
2.12167e-08
2.51124e-08
3.10269e-08
3.8402e-08
4.52668e-08
5.36594e-08
6.15509e-08
6.90689e-08
7.62052e-08
8.36161e-08
9.05887e-08
9.71965e-08
8.35922e-09
1.2651e-08
1.71974e-08
2.12167e-08
2.51124e-08
3.10269e-08
3.8402e-08
4.52668e-08
5.36594e-08
6.15509e-08
6.90689e-08
7.62052e-08
8.36161e-08
9.05887e-08
9.71965e-08
8.35922e-09
1.2651e-08
1.71974e-08
2.12167e-08
2.51124e-08
3.10269e-08
3.8402e-08
4.52668e-08
5.36594e-08
6.15509e-08
6.90689e-08
7.62052e-08
8.36161e-08
9.05887e-08
9.71965e-08
8.35922e-09
1.2651e-08
1.71974e-08
2.12167e-08
2.51124e-08
3.10269e-08
3.8402e-08
4.52668e-08
5.36594e-08
6.15509e-08
6.90689e-08
7.62052e-08
8.36161e-08
9.05887e-08
9.71965e-08
SCALARS Solute_Concentration_H+ float 1
LOOKUP_TABLE default
-4.2519e-05
-5.2825e-05
-6.1633e-05
-6.80701e-05
-7.1606e-05
-7.47814e-05
-7.53747e-05
-7.63832e-05
-7.87919e-05
-7.93639e-05
-8.22268e-05
-8.6483e-05
-9.01021e-05
-9.45525e-05
-9.75938e-05
-4.2519e-05
-5.2825e-05
-6.1633e-05
-6.80701e-05
-7.1606e-05
-7.47814e-05
-7.53747e-05
-7.63832e-05
-7.87919e-05
-7.93639e-05
-8.22268e-05
-8.6483e-05
-9.01021e-05
-9.45525e-05
-9.75938e-05
-4.2519e-05
-5.2825e-05
-6.1633e-05
-6.80701e-05
-7.1606e-05
-7.47814e-05
-7.53747e-05
-7.63832e-05
-7.87919e-05
-7.93639e-05
-8.22268e-05
-8.6483e-05
-9.01021e-05
-9.45525e-05
-9.75938e-05
-4.2519e-05
-5.2825e-05
-6.1633e-05
-6.80701e-05
-7.1606e-05
-7.47814e-05
-7.53747e-05
-7.63832e-05
-7.87919e-05
-7.93639e-05
-8.22268e-05
-8.6483e-05
-9.01021e-05
-9.45525e-05
-9.75938e-05
SCALARS Solute_Concentration_K+ float 1
LOOKUP_TABLE default
1.89683e-05
2.0249e-05
2.15253e-05
2.27914e-05
2.41017e-05
2.62209e-05
2.84953e-05
3.09354e-05
3.33257e-05
3.55583e-05
3.78959e-05
4.00428e-05
4.20981e-05
4.40162e-05
4.58067e-05
1.89683e-05
2.0249e-05
2.15253e-05
2.27914e-05
2.41017e-05
2.62209e-05
2.84953e-05
3.09354e-05
3.33257e-05
3.55583e-05
3.78959e-05
4.00428e-05
4.20981e-05
4.40162e-05
4.58067e-05
1.89683e-05
2.0249e-05
2.15253e-05
2.27914e-05
2.41017e-05
2.62209e-05
2.84953e-05
3.09354e-05
3.33257e-05
3.55583e-05
3.78959e-05
4.00428e-05
4.20981e-05
4.40162e-05
4.58067e-05
1.89683e-05
2.0249e-05
2.15253e-05
2.27914e-05
2.41017e-05
2.62209e-05
2.84953e-05
3.09354e-05
3.33257e-05
3.55583e-05
3.78959e-05
4.00428e-05
4.20981e-05
4.40162e-05
4.58067e-05
SCALARS Solute_Concentration_Mg++ float 1
LOOKUP_TABLE default
6.88481e-05
6.88727e-05
6.88989e-05
6.8922e-05
6.89444e-05
6.89784e-05
6.90208e-05
6.90603e-05
6.91085e-05
6.91539e-05
6.91972e-05
6.92382e-05
6.92808e-05
6.93209e-05
6.93589e-05
6.88481e-05
6.88727e-05
6.88989e-05
6.8922e-05
6.89444e-05
6.89784e-05
6.90208e-05
6.90603e-05
6.91085e-05
6.91539e-05
6.91972e-05
6.92382e-05
6.92808e-05
6.93209e-05
6.93589e-05
6.88481e-05
6.88727e-05
6.88989e-05
6.8922e-05
6.89444e-05
6.89784e-05
6.90208e-05
6.90603e-05
6.91085e-05
6.91539e-05
6.91972e-05
6.92382e-05
6.92808e-05
6.93209e-05
6.93589e-05
6.88481e-05
6.88727e-05
6.88989e-05
6.8922e-05
6.89444e-05
6.89784e-05
6.90208e-05
6.90603e-05
6.91085e-05
6.91539e-05
6.91972e-05
6.92382e-05
6.92808e-05
6.93209e-05
6.93589e-05
SCALARS Solute_Concentration_NO3- float 1
LOOKUP_TABLE default
0.0001
0.0001
0.0001
0.0001
0.0001
0.0001
0.0001
0.0001
0.0001
0.0001
0.0001
0.0001
0.0001
0.0001
0.0001
0.0001
0.0001
0.0001
0.0001
0.0001
0.0001
0.0001
0.0001
0.0001
0.0001
0.0001
0.0001
0.0001
0.0001
0.0001
0.0001
0.0001
0.0001
0.0001
0.0001
0.0001
0.0001
0.0001
0.0001
0.0001
0.0001
0.0001
0.0001
0.0001
0.0001
0.0001
0.0001
0.0001
0.0001
0.0001
0.0001
0.0001
0.0001
0.0001
0.0001
0.0001
0.0001
0.0001
0.0001
0.0001
SCALARS Solute_Concentration_Na+ float 1
LOOKUP_TABLE default
0.000428932
0.00043073
0.000432588
0.0004344
0.000436098
0.000438786
0.000442225
0.000445836
0.000449272
0.000452458
0.000455878
0.000459208
0.000462517
0.000465937
0.000468632
0.000428932
0.00043073
0.000432588
0.0004344
0.000436098
0.000438786
0.000442225
0.000445836
0.000449272
0.000452458
0.000455878
0.000459208
0.000462517
0.000465937
0.000468632
0.000428932
0.00043073
0.000432588
0.0004344
0.000436098
0.000438786
0.000442225
0.000445836
0.000449272
0.000452458
0.000455878
0.000459208
0.000462517
0.000465937
0.000468632
0.000428932
0.00043073
0.000432588
0.0004344
0.000436098
0.000438786
0.000442225
0.000445836
0.000449272
0.000452458
0.000455878
0.000459208
0.000462517
0.000465937
0.000468632
SCALARS Solute_Concentration_SO4-- float 1
LOOKUP_TABLE default
0.000161
0.000161
0.000161
0.000161
0.000161
0.000161
0.000161
0.000161
0.000161
0.000161
0.000161
0.000161
0.000161
0.000161
0.000161
0.000161
0.000161
0.000161
0.000161
0.000161
0.000161
0.000161
0.000161
0.000161
0.000161
0.000161
0.000161
0.000161
0.000161
0.000161
0.000161
0.000161
0.000161
0.000161
0.000161
0.000161
0.000161
0.000161
0.000161
0.000161
0.000161
0.000161
0.000161
0.000161
0.000161
0.000161
0.000161
0.000161
0.000161
0.000161
0.000161
0.000161
0.000161
0.000161
0.000161
0.000161
0.000161
0.000161
0.000161
0.000161
SCALARS Solute_Concentration_SiO2(aq) float 1
LOOKUP_TABLE default
2.03017e-05
2.88766e-05
3.70441e-05
4.43254e-05
5.05245e-05
5.96054e-05
6.93382e-05
7.97699e-05
9.02986e-05
9.95322e-05
0.000110095
0.000120655
0.000130814
0.000141206
0.000149706
2.03017e-05
2.88766e-05
3.70441e-05
4.43254e-05
5.05245e-05
5.96054e-05
6.93382e-05
7.97699e-05
9.02986e-05
9.95322e-05
0.000110095
0.000120655
0.000130814
0.000141206
0.000149706
2.03017e-05
2.88766e-05
3.70441e-05
4.43254e-05
5.05245e-05
5.96054e-05
6.93382e-05
7.97699e-05
9.02986e-05
9.95322e-05
0.000110095
0.000120655
0.000130814
0.000141206
0.000149706
2.03017e-05
2.88766e-05
3.70441e-05
4.43254e-05
5.05245e-05
5.96054e-05
6.93382e-05
7.97699e-05
9.02986e-05
9.95322e-05
0.000110095
0.000120655
0.000130814
0.000141206
0.000149706
SCALARS Solute_Concentration_Sr++ float 1
LOOKUP_TABLE default
5.07e-07
5.07e-07
5.07e-07
5.07e-07
5.07e-07
5.07e-07
5.07e-07
5.07e-07
5.07e-07
5.07e-07
5.07e-07
5.07e-07
5.07e-07
5.07e-07
5.07e-07
5.07e-07
5.07e-07
5.07e-07
5.07e-07
5.07e-07
5.07e-07
5.07e-07
5.07e-07
5.07e-07
5.07e-07
5.07e-07
5.07e-07
5.07e-07
5.07e-07
5.07e-07
5.07e-07
5.07e-07
5.07e-07
5.07e-07
5.07e-07
5.07e-07
5.07e-07
5.07e-07
5.07e-07
5.07e-07
5.07e-07
5.07e-07
5.07e-07
5.07e-07
5.07e-07
5.07e-07
5.07e-07
5.07e-07
5.07e-07
5.07e-07
5.07e-07
5.07e-07
5.07e-07
5.07e-07
5.07e-07
5.07e-07
5.07e-07
5.07e-07
5.07e-07
5.07e-07
SCALARS Reaction_rates_Moles_per_L_porusmedium_per_second_Albite float 1
LOOKUP_TABLE default
1.24993e-16
1.26242e-15
7.24827e-15
1.47226e-14
3.55173e-14
5.64539e-14
7.16344e-14
7.35283e-14
6.41013e-14
6.95899e-14
6.43266e-14
5.45646e-14
6.00298e-14
5.77319e-14
6.03845e-14
1.24993e-16
1.26242e-15
7.24827e-15
1.47226e-14
3.55173e-14
5.64539e-14
7.16344e-14
7.35283e-14
6.41013e-14
6.95899e-14
6.43266e-14
5.45646e-14
6.00298e-14
5.77319e-14
6.03845e-14
1.24993e-16
1.26242e-15
7.24827e-15
1.47226e-14
3.55173e-14
5.64539e-14
7.16344e-14
7.35283e-14
6.41013e-14
6.95899e-14
6.43266e-14
5.45646e-14
6.00298e-14
5.77319e-14
6.03845e-14
1.24993e-16
1.26242e-15
7.24827e-15
1.47226e-14
3.55173e-14
5.64539e-14
7.16344e-14
7.35283e-14
6.41013e-14
6.95899e-14
6.43266e-14
5.45646e-14
6.00298e-14
5.77319e-14
6.03845e-14
SCALARS Reaction_rates_Moles_per_L_porusmedium_per_second_Quartz float 1
LOOKUP_TABLE default
-3.74274e-14
-3.59755e-14
-3.58475e-14
-3.3978e-14
-3.84667e-14
-4.86591e-14
-4.28169e-14
-4.46085e-14
-4.45025e-14
-4.21593e-14
-4.33433e-14
-3.99805e-14
-4.09584e-14
-3.8104e-14
-4.27348e-14
-3.74274e-14
-3.59755e-14
-3.58475e-14
-3.3978e-14
-3.84667e-14
-4.86591e-14
-4.28169e-14
-4.46085e-14
-4.45025e-14
-4.21593e-14
-4.33433e-14
-3.99805e-14
-4.09584e-14
-3.8104e-14
-4.27348e-14
-3.74274e-14
-3.59755e-14
-3.58475e-14
-3.3978e-14
-3.84667e-14
-4.86591e-14
-4.28169e-14
-4.46085e-14
-4.45025e-14
-4.21593e-14
-4.33433e-14
-3.99805e-14
-4.09584e-14
-3.8104e-14
-4.27348e-14
-3.74274e-14
-3.59755e-14
-3.58475e-14
-3.3978e-14
-3.84667e-14
-4.86591e-14
-4.28169e-14
-4.46085e-14
-4.45025e-14
-4.21593e-14
-4.33433e-14
-3.99805e-14
-4.09584e-14
-3.8104e-14
-4.27348e-14
SCALARS Mineral_mass_fraction_Albite float 1
LOOKUP_TABLE default
0.494339
0.50217
0.493592
0.51788
0.49425
0.500471
0.500677
0.500845
0.499776
0.500638
0.500098
0.500604
0.500698
0.499966
0.501152
0.474758
0.503862
0.535666
0.500913
0.488575
0.50025
0.500262
0.501206
0.500398
0.499744
0.500857
0.499817
0.501391
0.500836
0.500107
0.496086
0.518107
0.500233
0.506135
0.481126
0.500296
0.500518
0.500694
0.500369
0.501183
0.500036
0.501081
0.499293
0.500569
0.500745
0.513389
0.505213
0.503497
0.504018
0.478518
0.500835
0.500455
0.499841
0.500805
0.501355
0.499294
0.500283
0.501015
0.500739
0.500516
SCALARS Mineral_mass_fraction_Quartz float 1
LOOKUP_TABLE default
0.505661
0.49783
0.506408
0.48212
0.50575
0.499529
0.499323
0.499155
0.500224
0.499362
0.499902
0.499396
0.499302
0.500034
0.498848
0.525242
0.496138
0.464334
0.499087
0.511425
0.49975
0.499738
0.498794
0.499602
0.500256
0.499143
0.500183
0.498609
0.499164
0.499893
0.503914
0.481893
0.499767
0.493865
0.518874
0.499704
0.499482
0.499306
0.499631
0.498817
0.499964
0.498919
0.500707
0.499431
0.499255
0.486611
0.494787
0.496503
0.495982
0.521482
0.499165
0.499545
0.500159
0.499195
0.498645
0.500706
0.499717
0.498985
0.499261
0.499484
SCALARS Mineral_depletion_ratio_Albite float 1
LOOKUP_TABLE default
1147.27
1143.47
1160.89
1157.84
1143.56
1013.62
931.011
1006.78
969.85
1007.13
974.717
990.698
981.475
950.628
922.684
1364.32
1455
1380.89
1383.94
1453.15
944.305
940.398
944.89
944.587
918.391
966.903
953.074
949.537
996.358
972.703
1151.02
1117.98
1117.42
1125.26
1137.8
1003.08
1019.58
932.56
934.445
994.338
1008.73
966.023
1068.63
1041.86
947.223
1232.56
1335.1
1340.05
1340.44
1313.83
936.368
955.26
1044.98
965.58
921.173
970.47
888.668
969.157
967.791
966.792
SCALARS Mineral_depletion_ratio_Quartz float 1
LOOKUP_TABLE default
1216.28
1227.7
1236.14
1268.84
1213.72
1041.45
982.997
950.986
889.516
937.92
918.202
991.383
990.925
946.532
991.704
1412.9
1368.7
1319.08
1327.69
1358.47
988.748
970.855
1022.06
948.693
978.617
919.049
989.243
1064.4
901.638
928.305
1202.84
1218.68
1190.47
1207.77
1182.71
952.426
992.126
966.647
1019.75
1016.5
980.629
975.102
973.546
951.23
951.488
1197.58
1216.86
1262.01
1380.45
1364.94
935.99
985.977
991.933
980.258
1026.96
954.285
975.985
934.104
943.433
947.552
