# vtk DataFile Version 2.0
Unstructured Grid Ptrack_cells
ASCII

DATASET UNSTRUCTURED_GRID
POINTS 80 float
0 99.9998 0.0
0 99.8998 0.0
0 99.7998 0.0
0 99.6998 0.0
0 99.5998 0.0
0 99.4998 0.0
0 99.3498 0.0
0 99.1998 0.0
0 99.0498 0.0
0 98.8998 0.0
0 98.7498 0.0
0 98.5998 0.0
0 98.4498 0.0
0 98.2998 0.0
0 98.1498 0.0
0 97.9998 0.0
0.1 99.9998 0.0
0.1 99.8998 0.0
0.1 99.7998 0.0
0.1 99.6998 0.0
0.1 99.5998 0.0
0.1 99.4998 0.0
0.1 99.3498 0.0
0.1 99.1998 0.0
0.1 99.0498 0.0
0.1 98.8998 0.0
0.1 98.7498 0.0
0.1 98.5998 0.0
0.1 98.4498 0.0
0.1 98.2998 0.0
0.1 98.1498 0.0
0.1 97.9998 0.0
0.2 99.9998 0.0
0.2 99.8998 0.0
0.2 99.7998 0.0
0.2 99.6998 0.0
0.2 99.5998 0.0
0.2 99.4998 0.0
0.2 99.3498 0.0
0.2 99.1998 0.0
0.2 99.0498 0.0
0.2 98.8998 0.0
0.2 98.7498 0.0
0.2 98.5998 0.0
0.2 98.4498 0.0
0.2 98.2998 0.0
0.2 98.1498 0.0
0.2 97.9998 0.0
0.3 99.9998 0.0
0.3 99.8998 0.0
0.3 99.7998 0.0
0.3 99.6998 0.0
0.3 99.5998 0.0
0.3 99.4998 0.0
0.3 99.3498 0.0
0.3 99.1998 0.0
0.3 99.0498 0.0
0.3 98.8998 0.0
0.3 98.7498 0.0
0.3 98.5998 0.0
0.3 98.4498 0.0
0.3 98.2998 0.0
0.3 98.1498 0.0
0.3 97.9998 0.0
0.4 99.9998 0.0
0.4 99.8998 0.0
0.4 99.7998 0.0
0.4 99.6998 0.0
0.4 99.5998 0.0
0.4 99.4998 0.0
0.4 99.3498 0.0
0.4 99.1998 0.0
0.4 99.0498 0.0
0.4 98.8998 0.0
0.4 98.7498 0.0
0.4 98.5998 0.0
0.4 98.4498 0.0
0.4 98.2998 0.0
0.4 98.1498 0.0
0.4 97.9998 0.0

CELLS 60 300
4 0 16 17 1
4 1 17 18 2
4 2 18 19 3
4 3 19 20 4
4 4 20 21 5
4 5 21 22 6
4 6 22 23 7
4 7 23 24 8
4 8 24 25 9
4 9 25 26 10
4 10 26 27 11
4 11 27 28 12
4 12 28 29 13
4 13 29 30 14
4 14 30 31 15
4 16 32 33 17
4 17 33 34 18
4 18 34 35 19
4 19 35 36 20
4 20 36 37 21
4 21 37 38 22
4 22 38 39 23
4 23 39 40 24
4 24 40 41 25
4 25 41 42 26
4 26 42 43 27
4 27 43 44 28
4 28 44 45 29
4 29 45 46 30
4 30 46 47 31
4 32 48 49 33
4 33 49 50 34
4 34 50 51 35
4 35 51 52 36
4 36 52 53 37
4 37 53 54 38
4 38 54 55 39
4 39 55 56 40
4 40 56 57 41
4 41 57 58 42
4 42 58 59 43
4 43 59 60 44
4 44 60 61 45
4 45 61 62 46
4 46 62 63 47
4 48 64 65 49
4 49 65 66 50
4 50 66 67 51
4 51 67 68 52
4 52 68 69 53
4 53 69 70 54
4 54 70 71 55
4 55 71 72 56
4 56 72 73 57
4 57 73 74 58
4 58 74 75 59
4 59 75 76 60
4 60 76 77 61
4 61 77 78 62
4 62 78 79 63

CELL_TYPES 60
9
9
9
9
9
9
9
9
9
9
9
9
9
9
9
9
9
9
9
9
9
9
9
9
9
9
9
9
9
9
9
9
9
9
9
9
9
9
9
9
9
9
9
9
9
9
9
9
9
9
9
9
9
9
9
9
9
9
9
9

CELL_DATA 60
SCALARS SOIL_OR_PARENT int 1
LOOKUP_TABLE default
1
1
1
1
1
0
0
0
0
0
0
0
0
0
0
1
1
1
1
1
0
0
0
0
0
0
0
0
0
0
1
1
1
1
1
0
0
0
0
0
0
0
0
0
0
1
1
1
1
1
0
0
0
0
0
0
0
0
0
0
SCALARS CELL_NUM int 1
LOOKUP_TABLE default
0
1
2
3
4
5
6
7
8
9
10
11
12
13
14
15
16
17
18
19
20
21
22
23
24
25
26
27
28
29
30
31
32
33
34
35
36
37
38
39
40
41
42
43
44
45
46
47
48
49
50
51
52
53
54
55
56
57
58
59
SCALARS Mineral_volume_percents_Albite float 1
LOOKUP_TABLE default
36.5054
34.4987
34.9618
33.4954
35.1933
39.4983
43.1463
39.7499
41.511
40.1273
41.3223
40.4417
41.1336
41.9512
43.4607
30.717
32.6465
32.5693
33.281
34.2672
42.5173
42.706
42.4544
42.8318
43.7752
41.7626
42.077
42.3286
40.1902
41.3223
33.5726
37.5859
35.2705
35.1933
36.4625
40.1902
39.4983
43.0205
42.7689
40.316
39.9386
41.6997
37.8001
38.2404
42.6431
34.4987
32.4149
33.8813
33.1095
34.4987
43.0205
41.8254
38.7436
41.4481
43.4607
41.7626
45.2847
41.4481
41.2594
41.6997
SCALARS Mineral_volume_percents_Quartz float 1
LOOKUP_TABLE default
29.1906
32.1834
33.727
35.1933
32.5693
38.0517
41.0707
42.1399
45.096
42.8947
43.5865
40.5046
40.5675
42.2657
40.2531
34.4987
33.5726
36.1195
34.8075
30.1767
40.4417
41.3223
39.3725
42.3915
40.7562
43.8381
40.5675
37.4857
44.7815
42.8318
35.1933
33.0324
32.9552
33.4182
31.9519
42.3286
40.3789
41.511
39.4983
39.4354
40.6304
41.4481
41.1965
42.0141
42.2028
34.7303
33.8813
33.4954
33.1867
36.291
42.8318
40.7562
40.4417
40.8191
39.1838
41.7626
41.3223
42.8947
42.706
42.2028
SCALARS Mineral_specific_surface_area_m2perg_Albite float 1
LOOKUP_TABLE default
0.090566
0.090566
0.090566
0.090566
0.090566
0.090566
0.090566
0.090566
0.090566
0.090566
0.090566
0.090566
0.090566
0.090566
0.090566
0.090566
0.090566
0.090566
0.090566
0.090566
0.090566
0.090566
0.090566
0.090566
0.090566
0.090566
0.090566
0.090566
0.090566
0.090566
0.090566
0.090566
0.090566
0.090566
0.090566
0.090566
0.090566
0.090566
0.090566
0.090566
0.090566
0.090566
0.090566
0.090566
0.090566
0.090566
0.090566
0.090566
0.090566
0.090566
0.090566
0.090566
0.090566
0.090566
0.090566
0.090566
0.090566
0.090566
0.090566
0.090566
SCALARS Mineral_specific_surface_area_m2perg_Quartz float 1
LOOKUP_TABLE default
0.090566
0.090566
0.090566
0.090566
0.090566
0.090566
0.090566
0.090566
0.090566
0.090566
0.090566
0.090566
0.090566
0.090566
0.090566
0.090566
0.090566
0.090566
0.090566
0.090566
0.090566
0.090566
0.090566
0.090566
0.090566
0.090566
0.090566
0.090566
0.090566
0.090566
0.090566
0.090566
0.090566
0.090566
0.090566
0.090566
0.090566
0.090566
0.090566
0.090566
0.090566
0.090566
0.090566
0.090566
0.090566
0.090566
0.090566
0.090566
0.090566
0.090566
0.090566
0.090566
0.090566
0.090566
0.090566
0.090566
0.090566
0.090566
0.090566
0.090566
SCALARS Mineral_mass_kg_Albite float 1
LOOKUP_TABLE default
9.675
9.14318
9.26591
8.87727
9.32727
15.7
17.15
15.8
16.5
15.95
16.425
16.075
16.35
16.675
17.275
8.14091
8.65227
8.63182
8.82045
9.08182
16.9
16.975
16.875
17.025
17.4
16.6
16.725
16.825
15.975
16.425
8.89773
9.96136
9.34773
9.32727
9.66364
15.975
15.7
17.1
17
16.025
15.875
16.575
15.025
15.2
16.95
9.14318
8.59091
8.97955
8.775
9.14318
17.1
16.625
15.4
16.475
17.275
16.6
18
16.475
16.4
16.575
SCALARS Mineral_mass_kg_Quartz float 1
LOOKUP_TABLE default
7.73636
8.52955
8.93864
9.32727
8.63182
15.125
16.325
16.75
17.925
17.05
17.325
16.1
16.125
16.8
16
9.14318
8.89773
9.57273
9.225
7.99773
16.075
16.425
15.65
16.85
16.2
17.425
16.125
14.9
17.8
17.025
9.32727
8.75455
8.73409
8.85682
8.46818
16.825
16.05
16.5
15.7
15.675
16.15
16.475
16.375
16.7
16.775
9.20455
8.97955
8.87727
8.79545
9.61818
17.025
16.2
16.075
16.225
15.575
16.6
16.425
17.05
16.975
16.775
SCALARS Mineral_surface_area_m2_Albite float 1
LOOKUP_TABLE default
876.226
828.062
839.177
803.979
844.734
1421.89
1553.21
1430.94
1494.34
1444.53
1487.55
1455.85
1480.75
1510.19
1564.53
737.29
783.602
781.75
798.834
822.504
1530.57
1537.36
1528.3
1541.89
1575.85
1503.4
1514.72
1523.77
1446.79
1487.55
805.832
902.161
846.587
844.734
875.197
1446.79
1421.89
1548.68
1539.62
1451.32
1437.74
1501.13
1360.75
1376.6
1535.09
828.062
778.045
813.242
794.717
828.062
1548.68
1505.66
1394.72
1492.08
1564.53
1503.4
1630.19
1492.08
1485.28
1501.13
SCALARS Mineral_surface_area_m2_Quartz float 1
LOOKUP_TABLE default
700.652
772.487
809.537
844.734
781.75
1369.81
1478.49
1516.98
1623.4
1544.15
1569.06
1458.11
1460.38
1521.51
1449.06
828.062
805.832
866.964
835.472
724.322
1455.85
1487.55
1417.36
1526.04
1467.17
1578.11
1460.38
1349.43
1612.08
1541.89
844.734
792.864
791.012
802.127
766.93
1523.77
1453.58
1494.34
1421.89
1419.62
1462.64
1492.08
1483.02
1512.45
1519.25
833.619
813.242
803.979
796.569
871.081
1541.89
1467.17
1455.85
1469.43
1410.57
1503.4
1487.55
1544.15
1537.36
1519.25
SCALARS Solute_Concentration_Al+++ float 1
LOOKUP_TABLE default
6.13522e-06
8.5158e-06
1.03771e-05
1.14705e-05
1.16207e-05
1.10378e-05
9.28239e-06
7.55658e-06
6.36187e-06
4.69461e-06
3.68021e-06
3.22612e-06
2.59559e-06
2.25382e-06
1.72905e-06
6.13522e-06
8.5158e-06
1.03771e-05
1.14705e-05
1.16207e-05
1.10378e-05
9.28239e-06
7.55658e-06
6.36187e-06
4.69461e-06
3.68021e-06
3.22612e-06
2.59559e-06
2.25382e-06
1.72905e-06
6.13522e-06
8.5158e-06
1.03771e-05
1.14705e-05
1.16207e-05
1.10378e-05
9.28239e-06
7.55658e-06
6.36187e-06
4.69461e-06
3.68021e-06
3.22612e-06
2.59559e-06
2.25382e-06
1.72905e-06
6.13522e-06
8.5158e-06
1.03771e-05
1.14705e-05
1.16207e-05
1.10378e-05
9.28239e-06
7.55658e-06
6.36187e-06
4.69461e-06
3.68021e-06
3.22612e-06
2.59559e-06
2.25382e-06
1.72905e-06
SCALARS Solute_Concentration_CO2(aq) float 1
LOOKUP_TABLE default
0.00964234
0.0094933
0.00936644
0.00927138
0.00921234
0.00914699
0.00910561
0.00905555
0.0089879
0.00894332
0.00886696
0.00877443
0.00868895
0.00859295
0.00851923
0.00964234
0.0094933
0.00936644
0.00927138
0.00921234
0.00914699
0.00910561
0.00905555
0.0089879
0.00894332
0.00886696
0.00877443
0.00868895
0.00859295
0.00851923
0.00964234
0.0094933
0.00936644
0.00927138
0.00921234
0.00914699
0.00910561
0.00905555
0.0089879
0.00894332
0.00886696
0.00877443
0.00868895
0.00859295
0.00851923
0.00964234
0.0094933
0.00936644
0.00927138
0.00921234
0.00914699
0.00910561
0.00905555
0.0089879
0.00894332
0.00886696
0.00877443
0.00868895
0.00859295
0.00851923
SCALARS Solute_Concentration_Ca++ float 1
LOOKUP_TABLE default
9.0701e-05
9.07016e-05
9.07021e-05
9.07027e-05
9.07031e-05
9.07039e-05
9.07048e-05
9.07057e-05
9.07067e-05
9.07077e-05
9.07086e-05
9.07095e-05
9.07104e-05
9.07113e-05
9.07122e-05
9.0701e-05
9.07016e-05
9.07021e-05
9.07027e-05
9.07031e-05
9.07039e-05
9.07048e-05
9.07057e-05
9.07067e-05
9.07077e-05
9.07086e-05
9.07095e-05
9.07104e-05
9.07113e-05
9.07122e-05
9.0701e-05
9.07016e-05
9.07021e-05
9.07027e-05
9.07031e-05
9.07039e-05
9.07048e-05
9.07057e-05
9.07067e-05
9.07077e-05
9.07086e-05
9.07095e-05
9.07104e-05
9.07113e-05
9.07122e-05
9.0701e-05
9.07016e-05
9.07021e-05
9.07027e-05
9.07031e-05
9.07039e-05
9.07048e-05
9.07057e-05
9.07067e-05
9.07077e-05
9.07086e-05
9.07095e-05
9.07104e-05
9.07113e-05
9.07122e-05
SCALARS Solute_Concentration_Cl- float 1
LOOKUP_TABLE default
0.000465
0.000465
0.000465
0.000465
0.000465
0.000465
0.000465
0.000465
0.000465
0.000465
0.000465
0.000465
0.000465
0.000465
0.000465
0.000465
0.000465
0.000465
0.000465
0.000465
0.000465
0.000465
0.000465
0.000465
0.000465
0.000465
0.000465
0.000465
0.000465
0.000465
0.000465
0.000465
0.000465
0.000465
0.000465
0.000465
0.000465
0.000465
0.000465
0.000465
0.000465
0.000465
0.000465
0.000465
0.000465
0.000465
0.000465
0.000465
0.000465
0.000465
0.000465
0.000465
0.000465
0.000465
0.000465
0.000465
0.000465
0.000465
0.000465
0.000465
SCALARS Solute_Concentration_Fe++ float 1
LOOKUP_TABLE default
2.0998e-08
3.17274e-08
4.30936e-08
5.31417e-08
6.28811e-08
7.76673e-08
9.6105e-08
1.13267e-07
1.34249e-07
1.53977e-07
1.72772e-07
1.90613e-07
2.0914e-07
2.26572e-07
2.43091e-07
2.0998e-08
3.17274e-08
4.30936e-08
5.31417e-08
6.28811e-08
7.76673e-08
9.6105e-08
1.13267e-07
1.34249e-07
1.53977e-07
1.72772e-07
1.90613e-07
2.0914e-07
2.26572e-07
2.43091e-07
2.0998e-08
3.17274e-08
4.30936e-08
5.31417e-08
6.28811e-08
7.76673e-08
9.6105e-08
1.13267e-07
1.34249e-07
1.53977e-07
1.72772e-07
1.90613e-07
2.0914e-07
2.26572e-07
2.43091e-07
2.0998e-08
3.17274e-08
4.30936e-08
5.31417e-08
6.28811e-08
7.76673e-08
9.6105e-08
1.13267e-07
1.34249e-07
1.53977e-07
1.72772e-07
1.90613e-07
2.0914e-07
2.26572e-07
2.43091e-07
SCALARS Solute_Concentration_Fe+++ float 1
LOOKUP_TABLE default
8.35922e-09
1.2651e-08
1.71974e-08
2.12167e-08
2.51124e-08
3.10269e-08
3.8402e-08
4.52668e-08
5.36594e-08
6.15509e-08
6.90689e-08
7.62052e-08
8.36161e-08
9.05887e-08
9.71965e-08
8.35922e-09
1.2651e-08
1.71974e-08
2.12167e-08
2.51124e-08
3.10269e-08
3.8402e-08
4.52668e-08
5.36594e-08
6.15509e-08
6.90689e-08
7.62052e-08
8.36161e-08
9.05887e-08
9.71965e-08
8.35922e-09
1.2651e-08
1.71974e-08
2.12167e-08
2.51124e-08
3.10269e-08
3.8402e-08
4.52668e-08
5.36594e-08
6.15509e-08
6.90689e-08
7.62052e-08
8.36161e-08
9.05887e-08
9.71965e-08
8.35922e-09
1.2651e-08
1.71974e-08
2.12167e-08
2.51124e-08
3.10269e-08
3.8402e-08
4.52668e-08
5.36594e-08
6.15509e-08
6.90689e-08
7.62052e-08
8.36161e-08
9.05887e-08
9.71965e-08
SCALARS Solute_Concentration_H+ float 1
LOOKUP_TABLE default
-4.2519e-05
-5.2825e-05
-6.1633e-05
-6.80701e-05
-7.1606e-05
-7.47814e-05
-7.53747e-05
-7.63832e-05
-7.87919e-05
-7.93639e-05
-8.22268e-05
-8.6483e-05
-9.01021e-05
-9.45525e-05
-9.75938e-05
-4.2519e-05
-5.2825e-05
-6.1633e-05
-6.80701e-05
-7.1606e-05
-7.47814e-05
-7.53747e-05
-7.63832e-05
-7.87919e-05
-7.93639e-05
-8.22268e-05
-8.6483e-05
-9.01021e-05
-9.45525e-05
-9.75938e-05
-4.2519e-05
-5.2825e-05
-6.1633e-05
-6.80701e-05
-7.1606e-05
-7.47814e-05
-7.53747e-05
-7.63832e-05
-7.87919e-05
-7.93639e-05
-8.22268e-05
-8.6483e-05
-9.01021e-05
-9.45525e-05
-9.75938e-05
-4.2519e-05
-5.2825e-05
-6.1633e-05
-6.80701e-05
-7.1606e-05
-7.47814e-05
-7.53747e-05
-7.63832e-05
-7.87919e-05
-7.93639e-05
-8.22268e-05
-8.6483e-05
-9.01021e-05
-9.45525e-05
-9.75938e-05
SCALARS Solute_Concentration_K+ float 1
LOOKUP_TABLE default
1.89683e-05
2.0249e-05
2.15253e-05
2.27914e-05
2.41017e-05
2.62209e-05
2.84953e-05
3.09354e-05
3.33257e-05
3.55583e-05
3.78959e-05
4.00428e-05
4.20981e-05
4.40162e-05
4.58067e-05
1.89683e-05
2.0249e-05
2.15253e-05
2.27914e-05
2.41017e-05
2.62209e-05
2.84953e-05
3.09354e-05
3.33257e-05
3.55583e-05
3.78959e-05
4.00428e-05
4.20981e-05
4.40162e-05
4.58067e-05
1.89683e-05
2.0249e-05
2.15253e-05
2.27914e-05
2.41017e-05
2.62209e-05
2.84953e-05
3.09354e-05
3.33257e-05
3.55583e-05
3.78959e-05
4.00428e-05
4.20981e-05
4.40162e-05
4.58067e-05
1.89683e-05
2.0249e-05
2.15253e-05
2.27914e-05
2.41017e-05
2.62209e-05
2.84953e-05
3.09354e-05
3.33257e-05
3.55583e-05
3.78959e-05
4.00428e-05
4.20981e-05
4.40162e-05
4.58067e-05
SCALARS Solute_Concentration_Mg++ float 1
LOOKUP_TABLE default
6.88481e-05
6.88727e-05
6.88989e-05
6.8922e-05
6.89444e-05
6.89784e-05
6.90208e-05
6.90603e-05
6.91085e-05
6.91539e-05
6.91972e-05
6.92382e-05
6.92808e-05
6.93209e-05
6.93589e-05
6.88481e-05
6.88727e-05
6.88989e-05
6.8922e-05
6.89444e-05
6.89784e-05
6.90208e-05
6.90603e-05
6.91085e-05
6.91539e-05
6.91972e-05
6.92382e-05
6.92808e-05
6.93209e-05
6.93589e-05
6.88481e-05
6.88727e-05
6.88989e-05
6.8922e-05
6.89444e-05
6.89784e-05
6.90208e-05
6.90603e-05
6.91085e-05
6.91539e-05
6.91972e-05
6.92382e-05
6.92808e-05
6.93209e-05
6.93589e-05
6.88481e-05
6.88727e-05
6.88989e-05
6.8922e-05
6.89444e-05
6.89784e-05
6.90208e-05
6.90603e-05
6.91085e-05
6.91539e-05
6.91972e-05
6.92382e-05
6.92808e-05
6.93209e-05
6.93589e-05
SCALARS Solute_Concentration_NO3- float 1
LOOKUP_TABLE default
0.0001
0.0001
0.0001
0.0001
0.0001
0.0001
0.0001
0.0001
0.0001
0.0001
0.0001
0.0001
0.0001
0.0001
0.0001
0.0001
0.0001
0.0001
0.0001
0.0001
0.0001
0.0001
0.0001
0.0001
0.0001
0.0001
0.0001
0.0001
0.0001
0.0001
0.0001
0.0001
0.0001
0.0001
0.0001
0.0001
0.0001
0.0001
0.0001
0.0001
0.0001
0.0001
0.0001
0.0001
0.0001
0.0001
0.0001
0.0001
0.0001
0.0001
0.0001
0.0001
0.0001
0.0001
0.0001
0.0001
0.0001
0.0001
0.0001
0.0001
SCALARS Solute_Concentration_Na+ float 1
LOOKUP_TABLE default
0.000428932
0.00043073
0.000432588
0.0004344
0.000436098
0.000438786
0.000442225
0.000445836
0.000449272
0.000452458
0.000455878
0.000459208
0.000462517
0.000465937
0.000468632
0.000428932
0.00043073
0.000432588
0.0004344
0.000436098
0.000438786
0.000442225
0.000445836
0.000449272
0.000452458
0.000455878
0.000459208
0.000462517
0.000465937
0.000468632
0.000428932
0.00043073
0.000432588
0.0004344
0.000436098
0.000438786
0.000442225
0.000445836
0.000449272
0.000452458
0.000455878
0.000459208
0.000462517
0.000465937
0.000468632
0.000428932
0.00043073
0.000432588
0.0004344
0.000436098
0.000438786
0.000442225
0.000445836
0.000449272
0.000452458
0.000455878
0.000459208
0.000462517
0.000465937
0.000468632
SCALARS Solute_Concentration_SO4-- float 1
LOOKUP_TABLE default
0.000161
0.000161
0.000161
0.000161
0.000161
0.000161
0.000161
0.000161
0.000161
0.000161
0.000161
0.000161
0.000161
0.000161
0.000161
0.000161
0.000161
0.000161
0.000161
0.000161
0.000161
0.000161
0.000161
0.000161
0.000161
0.000161
0.000161
0.000161
0.000161
0.000161
0.000161
0.000161
0.000161
0.000161
0.000161
0.000161
0.000161
0.000161
0.000161
0.000161
0.000161
0.000161
0.000161
0.000161
0.000161
0.000161
0.000161
0.000161
0.000161
0.000161
0.000161
0.000161
0.000161
0.000161
0.000161
0.000161
0.000161
0.000161
0.000161
0.000161
SCALARS Solute_Concentration_SiO2(aq) float 1
LOOKUP_TABLE default
2.03017e-05
2.88766e-05
3.70441e-05
4.43254e-05
5.05245e-05
5.96054e-05
6.93382e-05
7.97699e-05
9.02986e-05
9.95322e-05
0.000110095
0.000120655
0.000130814
0.000141206
0.000149706
2.03017e-05
2.88766e-05
3.70441e-05
4.43254e-05
5.05245e-05
5.96054e-05
6.93382e-05
7.97699e-05
9.02986e-05
9.95322e-05
0.000110095
0.000120655
0.000130814
0.000141206
0.000149706
2.03017e-05
2.88766e-05
3.70441e-05
4.43254e-05
5.05245e-05
5.96054e-05
6.93382e-05
7.97699e-05
9.02986e-05
9.95322e-05
0.000110095
0.000120655
0.000130814
0.000141206
0.000149706
2.03017e-05
2.88766e-05
3.70441e-05
4.43254e-05
5.05245e-05
5.96054e-05
6.93382e-05
7.97699e-05
9.02986e-05
9.95322e-05
0.000110095
0.000120655
0.000130814
0.000141206
0.000149706
SCALARS Solute_Concentration_Sr++ float 1
LOOKUP_TABLE default
5.07e-07
5.07e-07
5.07e-07
5.07e-07
5.07e-07
5.07e-07
5.07e-07
5.07e-07
5.07e-07
5.07e-07
5.07e-07
5.07e-07
5.07e-07
5.07e-07
5.07e-07
5.07e-07
5.07e-07
5.07e-07
5.07e-07
5.07e-07
5.07e-07
5.07e-07
5.07e-07
5.07e-07
5.07e-07
5.07e-07
5.07e-07
5.07e-07
5.07e-07
5.07e-07
5.07e-07
5.07e-07
5.07e-07
5.07e-07
5.07e-07
5.07e-07
5.07e-07
5.07e-07
5.07e-07
5.07e-07
5.07e-07
5.07e-07
5.07e-07
5.07e-07
5.07e-07
5.07e-07
5.07e-07
5.07e-07
5.07e-07
5.07e-07
5.07e-07
5.07e-07
5.07e-07
5.07e-07
5.07e-07
5.07e-07
5.07e-07
5.07e-07
5.07e-07
5.07e-07
SCALARS Reaction_rates_Moles_per_L_porusmedium_per_second_Albite float 1
LOOKUP_TABLE default
1.24993e-16
1.26242e-15
7.24827e-15
1.47226e-14
3.55173e-14
5.64539e-14
7.16344e-14
7.35283e-14
6.41013e-14
6.95899e-14
6.43266e-14
5.45646e-14
6.00298e-14
5.77319e-14
6.03845e-14
1.24993e-16
1.26242e-15
7.24827e-15
1.47226e-14
3.55173e-14
5.64539e-14
7.16344e-14
7.35283e-14
6.41013e-14
6.95899e-14
6.43266e-14
5.45646e-14
6.00298e-14
5.77319e-14
6.03845e-14
1.24993e-16
1.26242e-15
7.24827e-15
1.47226e-14
3.55173e-14
5.64539e-14
7.16344e-14
7.35283e-14
6.41013e-14
6.95899e-14
6.43266e-14
5.45646e-14
6.00298e-14
5.77319e-14
6.03845e-14
1.24993e-16
1.26242e-15
7.24827e-15
1.47226e-14
3.55173e-14
5.64539e-14
7.16344e-14
7.35283e-14
6.41013e-14
6.95899e-14
6.43266e-14
5.45646e-14
6.00298e-14
5.77319e-14
6.03845e-14
SCALARS Reaction_rates_Moles_per_L_porusmedium_per_second_Quartz float 1
LOOKUP_TABLE default
-3.74274e-14
-3.59755e-14
-3.58475e-14
-3.3978e-14
-3.84667e-14
-4.86591e-14
-4.28169e-14
-4.46085e-14
-4.45025e-14
-4.21593e-14
-4.33433e-14
-3.99805e-14
-4.09584e-14
-3.8104e-14
-4.27348e-14
-3.74274e-14
-3.59755e-14
-3.58475e-14
-3.3978e-14
-3.84667e-14
-4.86591e-14
-4.28169e-14
-4.46085e-14
-4.45025e-14
-4.21593e-14
-4.33433e-14
-3.99805e-14
-4.09584e-14
-3.8104e-14
-4.27348e-14
-3.74274e-14
-3.59755e-14
-3.58475e-14
-3.3978e-14
-3.84667e-14
-4.86591e-14
-4.28169e-14
-4.46085e-14
-4.45025e-14
-4.21593e-14
-4.33433e-14
-3.99805e-14
-4.09584e-14
-3.8104e-14
-4.27348e-14
-3.74274e-14
-3.59755e-14
-3.58475e-14
-3.3978e-14
-3.84667e-14
-4.86591e-14
-4.28169e-14
-4.46085e-14
-4.45025e-14
-4.21593e-14
-4.33433e-14
-3.99805e-14
-4.09584e-14
-3.8104e-14
-4.27348e-14
SCALARS Mineral_mass_fraction_Albite float 1
LOOKUP_TABLE default
0.600712
0.554616
0.540095
0.517838
0.555588
0.551521
0.54445
0.517976
0.510773
0.511798
0.516668
0.534456
0.537459
0.530666
0.55854
0.507306
0.527997
0.501655
0.519394
0.571655
0.552003
0.539996
0.555347
0.537079
0.549721
0.517746
0.544216
0.568378
0.502588
0.526535
0.524197
0.568669
0.549141
0.54564
0.570437
0.523789
0.526511
0.543024
0.55765
0.538016
0.528621
0.535541
0.510843
0.508414
0.539256
0.535063
0.52346
0.533992
0.53201
0.518142
0.537834
0.53866
0.523565
0.53983
0.559497
0.532115
0.557604
0.522911
0.523318
0.533402
SCALARS Mineral_mass_fraction_Quartz float 1
LOOKUP_TABLE default
0.399288
0.445384
0.459905
0.482162
0.444412
0.448479
0.45555
0.482024
0.489227
0.488202
0.483332
0.465544
0.462541
0.469334
0.44146
0.492694
0.472003
0.498345
0.480606
0.428345
0.447997
0.460004
0.444653
0.462921
0.450279
0.482254
0.455784
0.431622
0.497412
0.473465
0.475803
0.431331
0.450859
0.45436
0.429563
0.476211
0.473489
0.456976
0.44235
0.461984
0.471379
0.464459
0.489157
0.491586
0.460744
0.464937
0.47654
0.466008
0.46799
0.481858
0.462166
0.46134
0.476435
0.46017
0.440503
0.467885
0.442396
0.477089
0.476682
0.466598
SCALARS Mineral_depletion_ratio_Albite float 1
LOOKUP_TABLE default
0.953654
0.942028
0.922995
0.935179
0.908169
0.924089
0.917502
0.910458
0.930853
0.89558
0.904645
0.925823
0.916413
0.928516
0.903512
0.944921
0.938739
0.917338
0.934762
0.905686
0.929479
0.916651
0.916162
0.932986
0.904282
0.90565
0.928706
0.918772
0.925384
0.898518
0.949606
0.94679
0.923669
0.938307
0.911365
0.925396
0.909883
0.917265
0.932887
0.896069
0.901341
0.928061
0.909041
0.921579
0.901662
0.950958
0.938301
0.920539
0.934424
0.90632
0.930304
0.914897
0.908132
0.930749
0.903589
0.90565
0.933756
0.917047
0.927317
0.899437
SCALARS Mineral_depletion_ratio_Quartz float 1
LOOKUP_TABLE default
0.623987
0.671743
0.697431
0.714926
0.649307
0.624087
0.685484
0.677021
0.70238
0.691529
0.689196
0.674903
0.672295
0.692933
0.624389
0.681843
0.685326
0.717473
0.711765
0.621503
0.646302
0.687399
0.654319
0.683392
0.675344
0.690979
0.675407
0.645353
0.710184
0.647003
0.688122
0.68018
0.690345
0.699783
0.64253
0.662069
0.680095
0.672127
0.660201
0.66447
0.666583
0.682303
0.677298
0.691094
0.641742
0.683963
0.688194
0.69534
0.697689
0.685271
0.666039
0.683058
0.663459
0.671196
0.662316
0.675621
0.681336
0.690073
0.696098
0.641742
